 Entering Gaussian System, Link 0=g16
 Input=tmp.com
 Output=tmp.log
 Initial command:
 /usr/local//g16/l1.exe "/home/monty/scratch/Gau-142384.inp" -scrdir="/home/monty/scratch/"
 Entering Link 1 = /usr/local//g16/l1.exe PID=    142386.
  
 Copyright (c) 1988-2019, Gaussian, Inc.  All Rights Reserved.
  
 This is part of the Gaussian(R) 16 program.  It is based on
 the Gaussian(R) 09 system (copyright 2009, Gaussian, Inc.),
 the Gaussian(R) 03 system (copyright 2003, Gaussian, Inc.),
 the Gaussian(R) 98 system (copyright 1998, Gaussian, Inc.),
 the Gaussian(R) 94 system (copyright 1995, Gaussian, Inc.),
 the Gaussian 92(TM) system (copyright 1992, Gaussian, Inc.),
 the Gaussian 90(TM) system (copyright 1990, Gaussian, Inc.),
 the Gaussian 88(TM) system (copyright 1988, Gaussian, Inc.),
 the Gaussian 86(TM) system (copyright 1986, Carnegie Mellon
 University), and the Gaussian 82(TM) system (copyright 1983,
 Carnegie Mellon University). Gaussian is a federally registered
 trademark of Gaussian, Inc.
  
 This software contains proprietary and confidential information,
 including trade secrets, belonging to Gaussian, Inc.
  
 This software is provided under written license and may be
 used, copied, transmitted, or stored only in accord with that
 written license.
  
 The following legend is applicable only to US Government
 contracts under FAR:
  
                    RESTRICTED RIGHTS LEGEND
  
 Use, reproduction and disclosure by the US Government is
 subject to restrictions as set forth in subparagraphs (a)
 and (c) of the Commercial Computer Software - Restricted
 Rights clause in FAR 52.227-19.
  
 Gaussian, Inc.
 340 Quinnipiac St., Bldg. 40, Wallingford CT 06492
  
  
 ---------------------------------------------------------------
 Warning -- This program may not be used in any manner that
 competes with the business of Gaussian, Inc. or will provide
 assistance to any competitor of Gaussian, Inc.  The licensee
 of this program is prohibited from giving any competitor of
 Gaussian, Inc. access to this program.  By using this program,
 the user acknowledges that Gaussian, Inc. is engaged in the
 business of creating and licensing software in the field of
 computational chemistry and represents and warrants to the
 licensee that it is not a competitor of Gaussian, Inc. and that
 it will not use this program in any manner prohibited above.
 ---------------------------------------------------------------
  

 Cite this work as:
 Gaussian 16, Revision C.01,
 M. J. Frisch, G. W. Trucks, H. B. Schlegel, G. E. Scuseria, 
 M. A. Robb, J. R. Cheeseman, G. Scalmani, V. Barone, 
 G. A. Petersson, H. Nakatsuji, X. Li, M. Caricato, A. V. Marenich, 
 J. Bloino, B. G. Janesko, R. Gomperts, B. Mennucci, H. P. Hratchian, 
 J. V. Ortiz, A. F. Izmaylov, J. L. Sonnenberg, D. Williams-Young, 
 F. Ding, F. Lipparini, F. Egidi, J. Goings, B. Peng, A. Petrone, 
 T. Henderson, D. Ranasinghe, V. G. Zakrzewski, J. Gao, N. Rega, 
 G. Zheng, W. Liang, M. Hada, M. Ehara, K. Toyota, R. Fukuda, 
 J. Hasegawa, M. Ishida, T. Nakajima, Y. Honda, O. Kitao, H. Nakai, 
 T. Vreven, K. Throssell, J. A. Montgomery, Jr., J. E. Peralta, 
 F. Ogliaro, M. J. Bearpark, J. J. Heyd, E. N. Brothers, K. N. Kudin, 
 V. N. Staroverov, T. A. Keith, R. Kobayashi, J. Normand, 
 K. Raghavachari, A. P. Rendell, J. C. Burant, S. S. Iyengar, 
 J. Tomasi, M. Cossi, J. M. Millam, M. Klene, C. Adamo, R. Cammi, 
 J. W. Ochterski, R. L. Martin, K. Morokuma, O. Farkas, 
 J. B. Foresman, and D. J. Fox, Gaussian, Inc., Wallingford CT, 2019.
 
 ******************************************
 Gaussian 16:  ES64L-G16RevC.01  3-Jul-2019
                21-Mar-2026 
 ******************************************
 %mem=512MW
 %nprocshared=4
 Will use up to    4 processors via shared memory.
 --------------------------------------------------------
 # opt freq b97d3/def2tzvp/auto EmpiricalDispersion=GD3BJ
 --------------------------------------------------------
 1/18=20,19=15,26=3,38=1/1,3;
 2/9=110,12=2,17=6,18=5,40=1/2;
 3/5=44,7=101,11=2,25=1,30=1,71=1,74=-59,82=28,124=41/1,2,3;
 4//1;
 5/5=2,38=5/2;
 6/7=2,8=2,9=2,10=2,28=1/1;
 7//1,2,3,16;
 1/18=20,19=15,26=3/3(2);
 2/9=110/2;
 99//99;
 2/9=110/2;
 3/5=44,7=101,11=2,25=1,30=1,71=1,74=-59,82=28,124=41/1,2,3;
 4/5=5,16=3,69=1/1;
 5/5=2,38=5/2;
 7//1,2,3,16;
 1/18=20,19=15,26=3/3(-5);
 2/9=110/2;
 6/7=2,8=2,9=2,10=2,19=2,28=1/1;
 99/9=1/99;
 ----------------
 trans 1-propenol
 ----------------
 Symbolic Z-matrix:
 Charge =  0 Multiplicity = 1
 C                    -0.48872  -0.36341   0. 
 C                     0.83719  -0.36341   0. 
 H                    -1.08231   0.56063   0. 
 C                    -1.3211   -1.65907  -0.00003 
 H                    -1.08812  -2.23269   0.87265 
 H                    -2.36263  -1.41389   0.00188 
 H                    -1.09089  -2.23087  -0.87465 
 O                     1.61012   0.83971   0.00003 
 H                     2.23084   0.82184  -0.73208 
 H                     1.4155   -1.26366  -0.00002 
 

 GradGradGradGradGradGradGradGradGradGradGradGradGradGradGradGradGradGrad
 Berny optimization.
 Initialization pass.
                           ----------------------------
                           !    Initial Parameters    !
                           ! (Angstroms and Degrees)  !
 --------------------------                            --------------------------
 ! Name  Definition              Value          Derivative Info.                !
 --------------------------------------------------------------------------------
 ! R1    R(1,2)                  1.3259         estimate D2E/DX2                !
 ! R2    R(1,3)                  1.0983         estimate D2E/DX2                !
 ! R3    R(1,4)                  1.54           estimate D2E/DX2                !
 ! R4    R(2,8)                  1.43           estimate D2E/DX2                !
 ! R5    R(2,10)                 1.07           estimate D2E/DX2                !
 ! R6    R(4,5)                  1.07           estimate D2E/DX2                !
 ! R7    R(4,6)                  1.07           estimate D2E/DX2                !
 ! R8    R(4,7)                  1.07           estimate D2E/DX2                !
 ! R9    R(8,9)                  0.96           estimate D2E/DX2                !
 ! A1    A(2,1,3)              122.7159         estimate D2E/DX2                !
 ! A2    A(2,1,4)              122.718          estimate D2E/DX2                !
 ! A3    A(3,1,4)              114.5661         estimate D2E/DX2                !
 ! A4    A(1,2,8)              122.718          estimate D2E/DX2                !
 ! A5    A(1,2,10)             122.7159         estimate D2E/DX2                !
 ! A6    A(8,2,10)             114.5661         estimate D2E/DX2                !
 ! A7    A(1,4,5)              109.4712         estimate D2E/DX2                !
 ! A8    A(1,4,6)              109.4712         estimate D2E/DX2                !
 ! A9    A(1,4,7)              109.4712         estimate D2E/DX2                !
 ! A10   A(5,4,6)              109.4713         estimate D2E/DX2                !
 ! A11   A(5,4,7)              109.4712         estimate D2E/DX2                !
 ! A12   A(6,4,7)              109.4712         estimate D2E/DX2                !
 ! A13   A(2,8,9)              109.5            estimate D2E/DX2                !
 ! D1    D(3,1,2,8)              0.0016         estimate D2E/DX2                !
 ! D2    D(3,1,2,10)          -179.9988         estimate D2E/DX2                !
 ! D3    D(4,1,2,8)           -179.9998         estimate D2E/DX2                !
 ! D4    D(4,1,2,10)            -0.0002         estimate D2E/DX2                !
 ! D5    D(2,1,4,5)             59.892          estimate D2E/DX2                !
 ! D6    D(2,1,4,6)            179.892          estimate D2E/DX2                !
 ! D7    D(2,1,4,7)            -60.108          estimate D2E/DX2                !
 ! D8    D(3,1,4,5)           -120.1093         estimate D2E/DX2                !
 ! D9    D(3,1,4,6)             -0.1093         estimate D2E/DX2                !
 ! D10   D(3,1,4,7)            119.8907         estimate D2E/DX2                !
 ! D11   D(1,2,8,9)           -126.0            estimate D2E/DX2                !
 ! D12   D(10,2,8,9)            54.0004         estimate D2E/DX2                !
 --------------------------------------------------------------------------------
 Trust Radius=3.00D-01 FncErr=1.00D-07 GrdErr=1.00D-06 EigMax=2.50D+02 EigMin=1.00D-04
 Number of steps in this run=     44 maximum allowed number of steps=    100.
 GradGradGradGradGradGradGradGradGradGradGradGradGradGradGradGradGradGrad

                          Input orientation:                          
 ---------------------------------------------------------------------
 Center     Atomic      Atomic             Coordinates (Angstroms)
 Number     Number       Type             X           Y           Z
 ---------------------------------------------------------------------
      1          6           0       -0.488722   -0.363409    0.000000
      2          6           0        0.837194   -0.363409    0.000000
      3          1           0       -1.082307    0.560629    0.000000
      4          6           0       -1.321099   -1.659074   -0.000031
      5          1           0       -1.088118   -2.232695    0.872654
      6          1           0       -2.362627   -1.413889    0.001877
      7          1           0       -1.090890   -2.230873   -0.874645
      8          8           0        1.610115    0.839709    0.000034
      9          1           0        2.230839    0.821843   -0.732075
     10          1           0        1.415502   -1.263664   -0.000019
 ---------------------------------------------------------------------
                    Distance matrix (angstroms):
                    1          2          3          4          5
     1  C    0.000000
     2  C    1.325916   0.000000
     3  H    1.098267   2.130336   0.000000
     4  C    1.540000   2.517335   2.232511   0.000000
     5  H    2.148263   2.821805   2.926469   1.070000   0.000000
     6  H    2.148263   3.367843   2.353284   1.070000   1.747303
     7  H    2.148263   2.823108   2.925331   1.070000   1.747303
     8  O    2.419217   1.430000   2.706847   3.851744   4.181100
     9  H    3.055612   1.970533   3.403101   4.393984   4.787571
    10  H    2.106307   1.070000   3.093072   2.765019   2.822887
                    6          7          8          9         10
     6  H    0.000000
     7  H    1.747303   0.000000
     8  O    4.567427   4.181982   0.000000
     9  H    5.161115   4.513677   0.960000   0.000000
    10  H    3.781114   2.825326   2.112358   2.355848   0.000000
 Stoichiometry    C3H6O
 Framework group  C1[X(C3H6O)]
 Deg. of freedom    24
 Full point group                 C1      NOp   1
 Largest Abelian subgroup         C1      NOp   1
 Largest concise Abelian subgroup C1      NOp   1
                         Standard orientation:                         
 ---------------------------------------------------------------------
 Center     Atomic      Atomic             Coordinates (Angstroms)
 Number     Number       Type             X           Y           Z
 ---------------------------------------------------------------------
      1          6           0        0.486352    0.430829    0.001457
      2          6           0       -0.575319   -0.361972   -0.047274
      3          1           0        0.408515    1.525895    0.032469
      4          6           0        1.928420   -0.109286    0.019184
      5          1           0        2.105735   -0.681903   -0.867139
      6          1           0        2.615658    0.709920    0.057997
      7          1           0        2.065824   -0.731150    0.879013
      8          8           0       -1.914382    0.139563   -0.063740
      9          1           0       -2.417901   -0.267835    0.644847
     10          1           0       -0.499486   -1.428855   -0.077469
 ---------------------------------------------------------------------
 Rotational constants (GHZ):          41.1901709           3.7776056           3.5597716
 Standard basis: def2TZVP (5D, 7F)
 There are   180 symmetry adapted cartesian basis functions of A   symmetry.
 There are   160 symmetry adapted basis functions of A   symmetry.
   160 basis functions,   252 primitive gaussians,   180 cartesian basis functions
    16 alpha electrons       16 beta electrons
       nuclear repulsion energy       114.3114772404 Hartrees.
 NAtoms=   10 NActive=   10 NUniq=   10 SFac= 1.00D+00 NAtFMM=   60 NAOKFM=F Big=F
 Integral buffers will be    131072 words long.
 Raffenetti 2 integral format.
 Two-electron integral symmetry is turned on.
 Nuclear repulsion after empirical dispersion term =      114.2944379509 Hartrees.
 Standard density basis: Auto (5D, 7F)
   734 Density fitting functions
 There are   734 symmetry adapted density basis functions of A   symmetry.
 One-electron integrals computed using PRISM.
   1 Symmetry operations used in ECPInt.
 ECPInt:  NShTT=    2346 NPrTT=    6892 LenC2=    2327 LenP2D=    5841.
 LDataN:  DoStor=T MaxTD1= 6 Len=  172
 NBasis=   160 RedAO= T EigKep=  1.52D-04  NBF=   160
 NBsUse=   160 1.00D-06 EigRej= -1.00D+00 NBFU=   160
 NBasis=      160 NBas6D=      180 NTT=       12880   NTT6D=    16290
 NDBShl=      110 NDBF=        734 NDBF6D=      928  NNucDB=        0
 IDenFi=        2 ISolve=        0 FullAP=F BlkAPC=T NucTyp=        0
 TolInv= 1.00D-06 TolIt=  1.00D-10 IR12=0.
 FoFCou: FMM=F IPFlag=           0 FMFlag=           0 FMFlg1=           0
         NFxFlg=           0 DoJE=F BraDBF=T KetDBF=T FulRan=T
         wScrn=  0.000000 ICntrl=       600 IOpCl=  3 I1Cent=           6 NGrid=           0
         NMat0=    1 NMatS0=    928 NMatT0=    0 NMatD0=    1 NMtDS0=    0 NMtDT0=    0
 Petite list used in FoFCou.
 DBF EigKep=  1.32D-06 EigRej=  7.42D-07
 NDBF=    734  NBFD=   734
 NRank=   725 NBFDU=   725
 S*AI*S=  7.51087134778    
 ExpMin= 9.52D-02 ExpMax= 2.70D+04 ExpMxC= 9.22D+02 IAcc=3 IRadAn=         5 AccDes= 0.00D+00
 Harris functional with IExCor= 3630 and IRadAn=       5 diagonalized for initial guess.
 HarFok:  IExCor= 3630 AccDes= 0.00D+00 IRadAn=         5 IDoV= 1 UseB2=F ITyADJ=14
 ICtDFT=  3500011 ScaDFX=  1.000000  1.000000  1.000000  1.000000
 FoFCou: FMM=F IPFlag=           0 FMFlag=      100000 FMFlg1=           0
         NFxFlg=           0 DoJE=T BraDBF=F KetDBF=T FulRan=T
         wScrn=  0.000000 ICntrl=       500 IOpCl=  0 I1Cent=   200000004 NGrid=           0
         NMat0=    1 NMatS0=      1 NMatT0=    0 NMatD0=    1 NMtDS0=    0 NMtDT0=    0
 Petite list used in FoFCou.
 Requested convergence on RMS density matrix=1.00D-08 within 128 cycles.
 Requested convergence on MAX density matrix=1.00D-06.
 Requested convergence on             energy=1.00D-06.
 No special actions if energy rises.
 FoFCou: FMM=F IPFlag=           0 FMFlag=      100000 FMFlg1=           0
         NFxFlg=           0 DoJE=T BraDBF=T KetDBF=F FulRan=T
         wScrn=  0.000000 ICntrl=       500 IOpCl=  0 I1Cent=           5 NGrid=           0
         NMat0=    1 NMatS0=      1 NMatT0=    0 NMatD0=    1 NMtDS0=    0 NMtDT0=    0
 Symmetry not used in FoFCou.
 Initial convergence to 1.0D-05 achieved.  Increase integral accuracy.
 SCF Done:  E(RB97D3) =  -193.078939928     A.U. after   14 cycles
            NFock= 14  Conv=0.24D-08     -V/T= 2.0045

 **********************************************************************

            Population analysis using the SCF Density.

 **********************************************************************

 Orbital symmetries:
       Occupied  (A) (A) (A) (A) (A) (A) (A) (A) (A) (A) (A) (A)
                 (A) (A) (A) (A)
       Virtual   (A) (A) (A) (A) (A) (A) (A) (A) (A) (A) (A) (A)
                 (A) (A) (A) (A) (A) (A) (A) (A) (A) (A) (A) (A)
                 (A) (A) (A) (A) (A) (A) (A) (A) (A) (A) (A) (A)
                 (A) (A) (A) (A) (A) (A) (A) (A) (A) (A) (A) (A)
                 (A) (A) (A) (A) (A) (A) (A) (A) (A) (A) (A) (A)
                 (A) (A) (A) (A) (A) (A) (A) (A) (A) (A) (A) (A)
                 (A) (A) (A) (A) (A) (A) (A) (A) (A) (A) (A) (A)
                 (A) (A) (A) (A) (A) (A) (A) (A) (A) (A) (A) (A)
                 (A) (A) (A) (A) (A) (A) (A) (A) (A) (A) (A) (A)
                 (A) (A) (A) (A) (A) (A) (A) (A) (A) (A) (A) (A)
                 (A) (A) (A) (A) (A) (A) (A) (A) (A) (A) (A) (A)
                 (A) (A) (A) (A) (A) (A) (A) (A) (A) (A) (A) (A)
 The electronic state is 1-A.
 Alpha  occ. eigenvalues --  -18.76217  -9.94301  -9.89684  -9.89163  -0.94067
 Alpha  occ. eigenvalues --   -0.71036  -0.61966  -0.50817  -0.47242  -0.40324
 Alpha  occ. eigenvalues --   -0.37582  -0.35709  -0.33801  -0.31262  -0.26533
 Alpha  occ. eigenvalues --   -0.20294
 Alpha virt. eigenvalues --   -0.01501   0.01705   0.03932   0.06444   0.08449
 Alpha virt. eigenvalues --    0.11527   0.11778   0.13910   0.15910   0.19891
 Alpha virt. eigenvalues --    0.20879   0.21253   0.23899   0.24359   0.27764
 Alpha virt. eigenvalues --    0.29068   0.33170   0.34167   0.35497   0.38406
 Alpha virt. eigenvalues --    0.39767   0.40355   0.43006   0.43471   0.45055
 Alpha virt. eigenvalues --    0.46782   0.50658   0.53130   0.53690   0.57186
 Alpha virt. eigenvalues --    0.59659   0.60854   0.69475   0.76507   0.78194
 Alpha virt. eigenvalues --    0.81499   0.82733   0.90267   0.91615   0.92281
 Alpha virt. eigenvalues --    0.96352   0.99148   1.05976   1.11436   1.13986
 Alpha virt. eigenvalues --    1.20030   1.21861   1.33756   1.35792   1.38582
 Alpha virt. eigenvalues --    1.44477   1.45451   1.47231   1.48446   1.50761
 Alpha virt. eigenvalues --    1.55497   1.55986   1.60635   1.60924   1.65114
 Alpha virt. eigenvalues --    1.70444   1.76962   1.79111   1.82606   1.88407
 Alpha virt. eigenvalues --    1.92177   1.93230   1.98071   2.02822   2.03915
 Alpha virt. eigenvalues --    2.09938   2.13409   2.17020   2.21155   2.22761
 Alpha virt. eigenvalues --    2.25263   2.29563   2.31719   2.43817   2.45197
 Alpha virt. eigenvalues --    2.48341   2.51115   2.54412   2.57642   2.59600
 Alpha virt. eigenvalues --    2.63177   2.68472   2.72279   2.75519   2.78791
 Alpha virt. eigenvalues --    2.81957   2.85416   2.89694   2.90342   2.95640
 Alpha virt. eigenvalues --    2.98720   3.02253   3.04013   3.07507   3.09311
 Alpha virt. eigenvalues --    3.13092   3.14476   3.17108   3.19045   3.28584
 Alpha virt. eigenvalues --    3.32445   3.37165   3.43723   3.44117   3.46390
 Alpha virt. eigenvalues --    3.54646   3.58117   3.64908   3.72025   3.79976
 Alpha virt. eigenvalues --    3.90645   3.97582   4.00137   4.09581   4.24201
 Alpha virt. eigenvalues --    4.33195   4.34660   4.38117   4.47271   4.58961
 Alpha virt. eigenvalues --    4.62915   4.66177   4.83930   5.14852   5.20331
 Alpha virt. eigenvalues --    5.36919   5.58780   5.77799   5.84178   6.09941
 Alpha virt. eigenvalues --    6.30726   6.49838   6.62528   6.82281   6.98261
 Alpha virt. eigenvalues --   21.94710  22.22838  22.58187  43.46975
          Condensed to atoms (all electrons):
               1          2          3          4          5          6
     1  C    5.289365   0.488573   0.362442   0.284825  -0.032599  -0.032008
     2  C    0.488573   4.811103  -0.003811  -0.008400  -0.010135   0.003703
     3  H    0.362442  -0.003811   0.572090  -0.052483   0.004695  -0.007036
     4  C    0.284825  -0.008400  -0.052483   4.851023   0.399411   0.410386
     5  H   -0.032599  -0.010135   0.004695   0.399411   0.573534  -0.022740
     6  H   -0.032008   0.003703  -0.007036   0.410386  -0.022740   0.563326
     7  H   -0.046401  -0.002542   0.004536   0.402441  -0.029296  -0.025519
     8  O   -0.097630   0.355698   0.004238   0.004411  -0.000130  -0.000208
     9  H    0.007629  -0.043386  -0.000737  -0.000998  -0.000077   0.000017
    10  H   -0.127152   0.445632   0.010847   0.002250   0.001425  -0.000157
               7          8          9         10
     1  C   -0.046401  -0.097630   0.007629  -0.127152
     2  C   -0.002542   0.355698  -0.043386   0.445632
     3  H    0.004536   0.004238  -0.000737   0.010847
     4  C    0.402441   0.004411  -0.000998   0.002250
     5  H   -0.029296  -0.000130  -0.000077   0.001425
     6  H   -0.025519  -0.000208   0.000017  -0.000157
     7  H    0.581938   0.000147   0.000229   0.002707
     8  O    0.000147   7.921305   0.283152  -0.056884
     9  H    0.000229   0.283152   0.453487  -0.007948
    10  H    0.002707  -0.056884  -0.007948   0.640598
 Mulliken charges:
               1
     1  C   -0.097044
     2  C   -0.036435
     3  H    0.105218
     4  C   -0.292864
     5  H    0.115913
     6  H    0.110237
     7  H    0.111760
     8  O   -0.414101
     9  H    0.308633
    10  H    0.088682
 Sum of Mulliken charges =  -0.00000
 Mulliken charges with hydrogens summed into heavy atoms:
               1
     1  C    0.008175
     2  C    0.052248
     4  C    0.045045
     8  O   -0.105468
 Electronic spatial extent (au):  <R**2>=            364.7960
 Charge=             -0.0000 electrons
 Dipole moment (field-independent basis, Debye):
    X=              0.4890    Y=             -1.0716    Z=              1.1481  Tot=              1.6449
 Quadrupole moment (field-independent basis, Debye-Ang):
   XX=            -23.5024   YY=            -23.8906   ZZ=            -25.8022
   XY=              2.7203   XZ=             -3.2275   YZ=             -0.3321
 Traceless Quadrupole moment (field-independent basis, Debye-Ang):
   XX=              0.8960   YY=              0.5079   ZZ=             -1.4038
   XY=              2.7203   XZ=             -3.2275   YZ=             -0.3321
 Octapole moment (field-independent basis, Debye-Ang**2):
  XXX=            -14.4975  YYY=              0.3255  ZZZ=              1.0011  XYY=             -1.8558
  XXY=             -3.7213  XXZ=              8.5187  XZZ=             -3.9863  YZZ=             -1.0196
  YYZ=              0.2155  XYZ=              1.0560
 Hexadecapole moment (field-independent basis, Debye-Ang**3):
 XXXX=           -348.1636 YYYY=            -58.4255 ZZZZ=            -35.6647 XXXY=             13.8989
 XXXZ=            -22.3327 YYYX=              3.0453 YYYZ=             -0.0717 ZZZX=             -3.0830
 ZZZY=             -0.4859 XXYY=            -71.4512 XXZZ=            -63.1436 YYZZ=            -16.5763
 XXYZ=             -2.3123 YYXZ=             -0.5187 ZZXY=             -0.8211
 N-N= 1.142944379509D+02 E-N=-6.797913158260D+02  KE= 1.922209373914D+02
   1 Symmetry operations used in ECPInt.
 ECPInt:  NShTT=    2346 NPrTT=    6892 LenC2=    2327 LenP2D=    5841.
 LDataN:  DoStor=T MaxTD1= 7 Len=  274
 Calling FoFJK, ICntrl=      2527 FMM=F ISym2X=0 I1Cent= 4 IOpClX= 0 NMat=1 NMatS=1 NMatT=0.
 ***** Axes restored to original set *****
 -------------------------------------------------------------------
 Center     Atomic                   Forces (Hartrees/Bohr)
 Number     Number              X              Y              Z
 -------------------------------------------------------------------
      1        6          -0.018963649   -0.005422126    0.001288424
      2        6           0.010418904    0.034274678   -0.008465717
      3        1           0.010191599   -0.001473964   -0.000866390
      4        6           0.020069941    0.026980849    0.002620021
      5        1           0.000655849   -0.012109108    0.012677090
      6        1          -0.014974709    0.001219022    0.000121976
      7        1           0.001277824   -0.011457424   -0.012852867
      8        8          -0.021239144   -0.015038030    0.009466584
      9        1           0.004512474   -0.004631374   -0.003892411
     10        1           0.008050911   -0.012342524   -0.000096710
 -------------------------------------------------------------------
 Cartesian Forces:  Max     0.034274678 RMS     0.012731432

 GradGradGradGradGradGradGradGradGradGradGradGradGradGradGradGradGradGrad
 Berny optimization.
 FormGI is forming the generalized inverse of G from B-inverse, IUseBI=4.
 Internal  Forces:  Max     0.025589115 RMS     0.007899069
 Search for a local minimum.
 Step number   1 out of a maximum of   44
 All quantities printed in internal units (Hartrees-Bohrs-Radians)
 Mixed Optimization -- RFO/linear search
 Second derivative matrix not updated -- first step.
 ITU=  0
     Eigenvalues ---    0.00237   0.01295   0.01477   0.02537   0.03069
     Eigenvalues ---    0.07243   0.07243   0.16000   0.16000   0.16000
     Eigenvalues ---    0.16000   0.16000   0.16000   0.22000   0.22000
     Eigenvalues ---    0.28519   0.33875   0.37230   0.37230   0.37230
     Eigenvalues ---    0.37230   0.40989   0.55473   0.60481
 RFO step:  Lambda=-7.71775074D-03 EMin= 2.36824186D-03
 Linear search not attempted -- first point.
 Iteration  1 RMS(Cart)=  0.05534112 RMS(Int)=  0.00256681
 Iteration  2 RMS(Cart)=  0.00261666 RMS(Int)=  0.00056316
 Iteration  3 RMS(Cart)=  0.00000455 RMS(Int)=  0.00056315
 Iteration  4 RMS(Cart)=  0.00000000 RMS(Int)=  0.00056315
 Variable       Old X    -DE/DX   Delta X   Delta X   Delta X     New X
                                 (Linear)    (Quad)   (Total)
    R1        2.50562   0.00174   0.00000   0.00285   0.00285   2.50846
    R2        2.07542  -0.00675   0.00000  -0.01948  -0.01948   2.05594
    R3        2.91018  -0.00770   0.00000  -0.02628  -0.02628   2.88390
    R4        2.70231  -0.02559   0.00000  -0.06128  -0.06128   2.64103
    R5        2.02201   0.01474   0.00000   0.03878   0.03878   2.06078
    R6        2.02201   0.01697   0.00000   0.04467   0.04467   2.06667
    R7        2.02201   0.01486   0.00000   0.03909   0.03909   2.06110
    R8        2.02201   0.01690   0.00000   0.04448   0.04448   2.06649
    R9        1.81414   0.00597   0.00000   0.01062   0.01062   1.82475
    A1        2.14180  -0.00868   0.00000  -0.05080  -0.05093   2.09086
    A2        2.14183   0.00122   0.00000   0.00536   0.00521   2.14704
    A3        1.99956   0.00746   0.00000   0.04544   0.04528   2.04483
    A4        2.14183  -0.00275   0.00000  -0.01208  -0.01374   2.12809
    A5        2.14180   0.00148   0.00000   0.00666   0.00499   2.14679
    A6        1.99956   0.00127   0.00000   0.00542   0.00375   2.00331
    A7        1.91063   0.00529   0.00000   0.03276   0.03244   1.94307
    A8        1.91063   0.00131   0.00000   0.00609   0.00599   1.91662
    A9        1.91063   0.00370   0.00000   0.02257   0.02229   1.93292
   A10        1.91063  -0.00349   0.00000  -0.02180  -0.02193   1.88871
   A11        1.91063  -0.00384   0.00000  -0.01946  -0.01994   1.89069
   A12        1.91063  -0.00297   0.00000  -0.02016  -0.02021   1.89042
   A13        1.91114  -0.00664   0.00000  -0.03960  -0.03960   1.87154
    D1        0.00003   0.00313   0.00000   0.08218   0.08267   0.08270
    D2       -3.14157  -0.00061   0.00000  -0.03083  -0.03030   3.11132
    D3       -3.14159   0.00389   0.00000   0.11629   0.11575  -3.02584
    D4       -0.00000   0.00015   0.00000   0.00328   0.00278   0.00278
    D5        1.04531  -0.00000   0.00000  -0.01085  -0.01107   1.03425
    D6        3.13971  -0.00024   0.00000  -0.01376  -0.01409   3.12562
    D7       -1.04908  -0.00081   0.00000  -0.02090  -0.02141  -1.07050
    D8       -2.09630   0.00071   0.00000   0.02070   0.02119  -2.07511
    D9       -0.00191   0.00047   0.00000   0.01779   0.01817   0.01626
   D10        2.09249  -0.00010   0.00000   0.01066   0.01084   2.10333
   D11       -2.19911  -0.00413   0.00000  -0.16847  -0.16836  -2.36748
   D12        0.94248  -0.00067   0.00000  -0.06393  -0.06404   0.87844
         Item               Value     Threshold  Converged?
 Maximum Force            0.025589     0.000450     NO 
 RMS     Force            0.007899     0.000300     NO 
 Maximum Displacement     0.169559     0.001800     NO 
 RMS     Displacement     0.055897     0.001200     NO 
 Predicted change in Energy=-4.153085D-03
 GradGradGradGradGradGradGradGradGradGradGradGradGradGradGradGradGradGrad

                          Input orientation:                          
 ---------------------------------------------------------------------
 Center     Atomic      Atomic             Coordinates (Angstroms)
 Number     Number       Type             X           Y           Z
 ---------------------------------------------------------------------
      1          6           0       -0.496283   -0.361324   -0.042407
      2          6           0        0.830832   -0.345891   -0.066371
      3          1           0       -1.047734    0.576438   -0.029774
      4          6           0       -1.312064   -1.649972    0.010994
      5          1           0       -1.069213   -2.237941    0.900576
      6          1           0       -2.376309   -1.412927    0.039070
      7          1           0       -1.120550   -2.266569   -0.871592
      8          8           0        1.557917    0.844395    0.021843
      9          1           0        2.257546    0.802109   -0.642348
     10          1           0        1.435745   -1.253147   -0.052195
 ---------------------------------------------------------------------
                    Distance matrix (angstroms):
                    1          2          3          4          5
     1  C    0.000000
     2  C    1.327422   0.000000
     3  H    1.087959   2.093093   0.000000
     4  C    1.526094   2.509705   2.242417   0.000000
     5  H    2.176960   2.850440   2.964243   1.093636   0.000000
     6  H    2.155691   3.381633   2.393204   1.090687   1.769560
     7  H    2.169611   2.853993   2.965914   1.093539   1.773142
     8  O    2.382777   1.397575   2.619901   3.802470   4.144246
     9  H    3.049112   1.919679   3.369132   4.379689   4.763386
    10  H    2.127951   1.090519   3.084728   2.777033   2.855241
                    6          7          8          9         10
     6  H    0.000000
     7  H    1.770577   0.000000
     8  O    4.535850   4.201251   0.000000
     9  H    5.181055   4.569559   0.965619   0.000000
    10  H    3.816492   2.869334   2.102401   2.290789   0.000000
 Stoichiometry    C3H6O
 Framework group  C1[X(C3H6O)]
 Deg. of freedom    24
 Full point group                 C1      NOp   1
 Largest Abelian subgroup         C1      NOp   1
 Largest concise Abelian subgroup C1      NOp   1
                         Standard orientation:                         
 ---------------------------------------------------------------------
 Center     Atomic      Atomic             Coordinates (Angstroms)
 Number     Number       Type             X           Y           Z
 ---------------------------------------------------------------------
      1          6           0        0.481037    0.427183    0.038897
      2          6           0       -0.585955   -0.361710    0.003894
      3          1           0        0.354031    1.507173    0.072770
      4          6           0        1.910559   -0.105009   -0.008014
      5          1           0        2.091494   -0.679228   -0.921017
      6          1           0        2.615707    0.726699    0.017020
      7          1           0        2.111509   -0.751812    0.850526
      8          8           0       -1.882348    0.152058   -0.088959
      9          1           0       -2.428417   -0.333675    0.542144
     10          1           0       -0.519389   -1.448410   -0.058431
 ---------------------------------------------------------------------
 Rotational constants (GHZ):          40.9582775           3.8505476           3.6214204
 Standard basis: def2TZVP (5D, 7F)
 There are   180 symmetry adapted cartesian basis functions of A   symmetry.
 There are   160 symmetry adapted basis functions of A   symmetry.
   160 basis functions,   252 primitive gaussians,   180 cartesian basis functions
    16 alpha electrons       16 beta electrons
       nuclear repulsion energy       114.8837360439 Hartrees.
 NAtoms=   10 NActive=   10 NUniq=   10 SFac= 1.00D+00 NAtFMM=   60 NAOKFM=F Big=F
 Integral buffers will be    131072 words long.
 Raffenetti 2 integral format.
 Two-electron integral symmetry is turned on.
 Nuclear repulsion after empirical dispersion term =      114.8667050700 Hartrees.
 Standard density basis: Auto (5D, 7F)
   734 Density fitting functions
 There are   734 symmetry adapted density basis functions of A   symmetry.
 One-electron integrals computed using PRISM.
   1 Symmetry operations used in ECPInt.
 ECPInt:  NShTT=    2346 NPrTT=    6892 LenC2=    2327 LenP2D=    5846.
 LDataN:  DoStor=T MaxTD1= 6 Len=  172
 NBasis=   160 RedAO= T EigKep=  1.54D-04  NBF=   160
 NBsUse=   160 1.00D-06 EigRej= -1.00D+00 NBFU=   160
 NBasis=      160 NBas6D=      180 NTT=       12880   NTT6D=    16290
 NDBShl=      110 NDBF=        734 NDBF6D=      928  NNucDB=        0
 IDenFi=        2 ISolve=        0 FullAP=F BlkAPC=T NucTyp=        0
 TolInv= 1.00D-06 TolIt=  1.00D-10 IR12=0.
 FoFCou: FMM=F IPFlag=           0 FMFlag=           0 FMFlg1=           0
         NFxFlg=           0 DoJE=F BraDBF=T KetDBF=T FulRan=T
         wScrn=  0.000000 ICntrl=       600 IOpCl=  3 I1Cent=           6 NGrid=           0
         NMat0=    1 NMatS0=    928 NMatT0=    0 NMatD0=    1 NMtDS0=    0 NMtDT0=    0
 Petite list used in FoFCou.
 DBF EigKep=  1.38D-06 EigRej=  6.69D-07
 NDBF=    734  NBFD=   734
 NRank=   725 NBFDU=   725
 S*AI*S=  7.52034798697    
 Initial guess from the checkpoint file:  "/home/monty/scratch/Gau-142386.chk"
 B after Tr=    -0.000000    0.000000    0.000000
         Rot=    0.999978   -0.006590   -0.000320   -0.000199 Ang=  -0.76 deg.
 Recovered     1 saved fitting vectors from chk file.
 ExpMin= 9.52D-02 ExpMax= 2.70D+04 ExpMxC= 9.22D+02 IAcc=3 IRadAn=         5 AccDes= 0.00D+00
 Harris functional with IExCor= 3630 and IRadAn=       5 diagonalized for initial guess.
 HarFok:  IExCor= 3630 AccDes= 0.00D+00 IRadAn=         5 IDoV= 1 UseB2=F ITyADJ=14
 ICtDFT=  3500011 ScaDFX=  1.000000  1.000000  1.000000  1.000000
 FoFCou: FMM=F IPFlag=           0 FMFlag=      100000 FMFlg1=           0
         NFxFlg=           0 DoJE=T BraDBF=F KetDBF=T FulRan=T
         wScrn=  0.000000 ICntrl=       500 IOpCl=  0 I1Cent=   200000004 NGrid=           0
         NMat0=    1 NMatS0=      1 NMatT0=    0 NMatD0=    1 NMtDS0=    0 NMtDT0=    0
 Petite list used in FoFCou.
 Requested convergence on RMS density matrix=1.00D-08 within 128 cycles.
 Requested convergence on MAX density matrix=1.00D-06.
 Requested convergence on             energy=1.00D-06.
 No special actions if energy rises.
 FoFCou: FMM=F IPFlag=           0 FMFlag=      100000 FMFlg1=           0
         NFxFlg=           0 DoJE=T BraDBF=T KetDBF=F FulRan=T
         wScrn=  0.000000 ICntrl=       500 IOpCl=  0 I1Cent=           5 NGrid=           0
         NMat0=    1 NMatS0=      1 NMatT0=    0 NMatD0=    1 NMtDS0=    0 NMtDT0=    0
 Symmetry not used in FoFCou.
 Initial convergence to 1.0D-05 achieved.  Increase integral accuracy.
 SCF Done:  E(RB97D3) =  -193.083601526     A.U. after   12 cycles
            NFock= 12  Conv=0.53D-08     -V/T= 2.0047
   1 Symmetry operations used in ECPInt.
 ECPInt:  NShTT=    2346 NPrTT=    6892 LenC2=    2327 LenP2D=    5846.
 LDataN:  DoStor=T MaxTD1= 7 Len=  274
 Calling FoFJK, ICntrl=      2527 FMM=F ISym2X=0 I1Cent= 4 IOpClX= 0 NMat=1 NMatS=1 NMatT=0.
 ***** Axes restored to original set *****
 -------------------------------------------------------------------
 Center     Atomic                   Forces (Hartrees/Bohr)
 Number     Number              X              Y              Z
 -------------------------------------------------------------------
      1        6          -0.009547414   -0.009216724    0.002190847
      2        6           0.006885366    0.010838219    0.003229829
      3        1           0.002533823    0.001552038   -0.000193285
      4        6           0.006514118    0.009766766   -0.000822936
      5        1          -0.000670105   -0.001640534    0.000821800
      6        1          -0.001881822   -0.001297218   -0.000123800
      7        1          -0.001023018   -0.002420561   -0.000827311
      8        8          -0.006397283   -0.006239129   -0.003758630
      9        1           0.003501195    0.000624597    0.001390988
     10        1           0.000085140   -0.001967453   -0.001907502
 -------------------------------------------------------------------
 Cartesian Forces:  Max     0.010838219 RMS     0.004605430

 GradGradGradGradGradGradGradGradGradGradGradGradGradGradGradGradGradGrad
 Berny optimization.
 Using GEDIIS/GDIIS optimizer.
 FormGI is forming the generalized inverse of G from B-inverse, IUseBI=4.
 Internal  Forces:  Max     0.006437679 RMS     0.002255748
 Search for a local minimum.
 Step number   2 out of a maximum of   44
 All quantities printed in internal units (Hartrees-Bohrs-Radians)
 Mixed Optimization -- RFO/linear search
 Update second derivatives using D2CorX and points    1    2
 DE= -4.66D-03 DEPred=-4.15D-03 R= 1.12D+00
 TightC=F SS=  1.41D+00  RLast= 2.77D-01 DXNew= 5.0454D-01 8.3015D-01
 Trust test= 1.12D+00 RLast= 2.77D-01 DXMaxT set to 5.05D-01
 ITU=  1  0
 Use linear search instead of GDIIS.
     Eigenvalues ---    0.00237   0.01152   0.01423   0.02763   0.03211
     Eigenvalues ---    0.06922   0.07093   0.13739   0.15969   0.15998
     Eigenvalues ---    0.16000   0.16000   0.17126   0.21867   0.22169
     Eigenvalues ---    0.27178   0.34000   0.36835   0.37230   0.37230
     Eigenvalues ---    0.37340   0.39707   0.55344   0.60784
 RFO step:  Lambda=-1.70380352D-03 EMin= 2.36779476D-03
 Quartic linear search produced a step of  0.25134.
 Iteration  1 RMS(Cart)=  0.04387846 RMS(Int)=  0.00573995
 Iteration  2 RMS(Cart)=  0.00465565 RMS(Int)=  0.00018781
 Iteration  3 RMS(Cart)=  0.00005453 RMS(Int)=  0.00017981
 Iteration  4 RMS(Cart)=  0.00000001 RMS(Int)=  0.00017981
 Variable       Old X    -DE/DX   Delta X   Delta X   Delta X     New X
                                 (Linear)    (Quad)   (Total)
    R1        2.50846   0.00413   0.00072   0.00831   0.00902   2.51748
    R2        2.05594   0.00005  -0.00490   0.00127  -0.00362   2.05232
    R3        2.88390  -0.00533  -0.00660  -0.02156  -0.02817   2.85573
    R4        2.64103  -0.00644  -0.01540  -0.01608  -0.03148   2.60955
    R5        2.06078   0.00166   0.00975   0.00337   0.01312   2.07390
    R6        2.06667   0.00140   0.01123   0.00219   0.01342   2.08009
    R7        2.06110   0.00155   0.00983   0.00299   0.01282   2.07392
    R8        2.06649   0.00185   0.01118   0.00370   0.01488   2.08137
    R9        1.82475   0.00155   0.00267   0.00290   0.00557   1.83032
    A1        2.09086  -0.00400  -0.01280  -0.02524  -0.03813   2.05274
    A2        2.14704   0.00188   0.00131   0.01040   0.01162   2.15866
    A3        2.04483   0.00212   0.01138   0.01558   0.02687   2.07171
    A4        2.12809   0.00061  -0.00345   0.00506   0.00111   2.12920
    A5        2.14679  -0.00143   0.00125  -0.00895  -0.00820   2.13858
    A6        2.00331   0.00089   0.00094   0.00862   0.00907   2.01237
    A7        1.94307   0.00110   0.00815   0.00629   0.01423   1.95731
    A8        1.91662   0.00162   0.00151   0.01179   0.01316   1.92978
    A9        1.93292   0.00229   0.00560   0.01665   0.02201   1.95494
   A10        1.88871  -0.00154  -0.00551  -0.01128  -0.01689   1.87181
   A11        1.89069  -0.00172  -0.00501  -0.01136  -0.01666   1.87403
   A12        1.89042  -0.00197  -0.00508  -0.01355  -0.01878   1.87164
   A13        1.87154   0.00379  -0.00995   0.03156   0.02161   1.89315
    D1        0.08270  -0.00039   0.02078  -0.02163  -0.00090   0.08180
    D2        3.11132   0.00053  -0.00761   0.03220   0.02448   3.13580
    D3       -3.02584  -0.00072   0.02909  -0.04926  -0.02006  -3.04590
    D4        0.00278   0.00020   0.00070   0.00458   0.00532   0.00810
    D5        1.03425   0.00029  -0.00278   0.04016   0.03750   1.07175
    D6        3.12562   0.00013  -0.00354   0.03783   0.03432  -3.12325
    D7       -1.07050   0.00016  -0.00538   0.03904   0.03365  -1.03685
    D8       -2.07511   0.00007   0.00533   0.01395   0.01930  -2.05581
    D9        0.01626  -0.00008   0.00457   0.01161   0.01611   0.03238
   D10        2.10333  -0.00005   0.00273   0.01282   0.01545   2.11878
   D11       -2.36748  -0.00209  -0.04232  -0.15981  -0.20202  -2.56950
   D12        0.87844  -0.00280  -0.01610  -0.20847  -0.22467   0.65377
         Item               Value     Threshold  Converged?
 Maximum Force            0.006438     0.000450     NO 
 RMS     Force            0.002256     0.000300     NO 
 Maximum Displacement     0.143455     0.001800     NO 
 RMS     Displacement     0.046364     0.001200     NO 
 Predicted change in Energy=-1.138217D-03
 GradGradGradGradGradGradGradGradGradGradGradGradGradGradGradGradGradGrad

                          Input orientation:                          
 ---------------------------------------------------------------------
 Center     Atomic      Atomic             Coordinates (Angstroms)
 Number     Number       Type             X           Y           Z
 ---------------------------------------------------------------------
      1          6           0       -0.509056   -0.364682   -0.036430
      2          6           0        0.821509   -0.326191   -0.089922
      3          1           0       -1.039736    0.582704   -0.018446
      4          6           0       -1.308938   -1.645682    0.017587
      5          1           0       -1.079528   -2.240586    0.914850
      6          1           0       -2.384441   -1.428121    0.037636
      7          1           0       -1.121835   -2.286395   -0.858537
      8          8           0        1.522236    0.862031   -0.026384
      9          1           0        2.321657    0.776066   -0.566435
     10          1           0        1.438019   -1.233975   -0.106122
 ---------------------------------------------------------------------
                    Distance matrix (angstroms):
                    1          2          3          4          5
     1  C    0.000000
     2  C    1.332196   0.000000
     3  H    1.086042   2.072542   0.000000
     4  C    1.511188   2.508269   2.244877   0.000000
     5  H    2.179309   2.878961   2.973818   1.100737   0.000000
     6  H    2.157187   3.392438   2.419669   1.097471   1.769860
     7  H    2.178150   2.865267   2.990689   1.101414   1.774483
     8  O    2.372989   1.380916   2.577167   3.782341   4.157082
     9  H    3.097604   1.921583   3.411253   4.403086   4.781470
    10  H    2.133455   1.097461   3.073643   2.780392   2.897187
                    6          7          8          9         10
     6  H    0.000000
     7  H    1.770291   0.000000
     8  O    4.528910   4.194780   0.000000
     9  H    5.231702   4.617535   0.968566   0.000000
    10  H    3.830087   2.868200   2.099213   2.243429   0.000000
 Stoichiometry    C3H6O
 Framework group  C1[X(C3H6O)]
 Deg. of freedom    24
 Full point group                 C1      NOp   1
 Largest Abelian subgroup         C1      NOp   1
 Largest concise Abelian subgroup C1      NOp   1
                         Standard orientation:                         
 ---------------------------------------------------------------------
 Center     Atomic      Atomic             Coordinates (Angstroms)
 Number     Number       Type             X           Y           Z
 ---------------------------------------------------------------------
      1          6           0        0.486786    0.423039    0.033279
      2          6           0       -0.593195   -0.356347    0.002558
      3          1           0        0.331422    1.496999    0.077536
      4          6           0        1.902365   -0.104368   -0.007504
      5          1           0        2.111978   -0.658952   -0.934931
      6          1           0        2.623201    0.721327    0.047863
      7          1           0        2.115341   -0.780617    0.835373
      8          8           0       -1.869851    0.164963   -0.070331
      9          1           0       -2.468946   -0.421586    0.414607
     10          1           0       -0.529920   -1.450825   -0.047797
 ---------------------------------------------------------------------
 Rotational constants (GHZ):          41.4478006           3.8735916           3.6368697
 Standard basis: def2TZVP (5D, 7F)
 There are   180 symmetry adapted cartesian basis functions of A   symmetry.
 There are   160 symmetry adapted basis functions of A   symmetry.
   160 basis functions,   252 primitive gaussians,   180 cartesian basis functions
    16 alpha electrons       16 beta electrons
       nuclear repulsion energy       115.1570342806 Hartrees.
 NAtoms=   10 NActive=   10 NUniq=   10 SFac= 1.00D+00 NAtFMM=   60 NAOKFM=F Big=F
 Integral buffers will be    131072 words long.
 Raffenetti 2 integral format.
 Two-electron integral symmetry is turned on.
 Nuclear repulsion after empirical dispersion term =      115.1400381509 Hartrees.
 Standard density basis: Auto (5D, 7F)
   734 Density fitting functions
 There are   734 symmetry adapted density basis functions of A   symmetry.
 One-electron integrals computed using PRISM.
   1 Symmetry operations used in ECPInt.
 ECPInt:  NShTT=    2346 NPrTT=    6892 LenC2=    2327 LenP2D=    5848.
 LDataN:  DoStor=T MaxTD1= 6 Len=  172
 NBasis=   160 RedAO= T EigKep=  1.57D-04  NBF=   160
 NBsUse=   160 1.00D-06 EigRej= -1.00D+00 NBFU=   160
 NBasis=      160 NBas6D=      180 NTT=       12880   NTT6D=    16290
 NDBShl=      110 NDBF=        734 NDBF6D=      928  NNucDB=        0
 IDenFi=        2 ISolve=        0 FullAP=F BlkAPC=T NucTyp=        0
 TolInv= 1.00D-06 TolIt=  1.00D-10 IR12=0.
 FoFCou: FMM=F IPFlag=           0 FMFlag=           0 FMFlg1=           0
         NFxFlg=           0 DoJE=F BraDBF=T KetDBF=T FulRan=T
         wScrn=  0.000000 ICntrl=       600 IOpCl=  3 I1Cent=           6 NGrid=           0
         NMat0=    1 NMatS0=    928 NMatT0=    0 NMatD0=    1 NMtDS0=    0 NMtDT0=    0
 Petite list used in FoFCou.
 DBF EigKep=  1.44D-06 EigRej=  6.19D-07
 NDBF=    734  NBFD=   734
 NRank=   725 NBFDU=   725
 S*AI*S=  7.53114603444    
 Initial guess from the checkpoint file:  "/home/monty/scratch/Gau-142386.chk"
 B after Tr=     0.000000   -0.000000   -0.000000
         Rot=    0.999955   -0.009457    0.000549    0.000438 Ang=  -1.09 deg.
 Recovered     1 saved fitting vectors from chk file.
 ExpMin= 9.52D-02 ExpMax= 2.70D+04 ExpMxC= 9.22D+02 IAcc=3 IRadAn=         5 AccDes= 0.00D+00
 Harris functional with IExCor= 3630 and IRadAn=       5 diagonalized for initial guess.
 HarFok:  IExCor= 3630 AccDes= 0.00D+00 IRadAn=         5 IDoV= 1 UseB2=F ITyADJ=14
 ICtDFT=  3500011 ScaDFX=  1.000000  1.000000  1.000000  1.000000
 FoFCou: FMM=F IPFlag=           0 FMFlag=      100000 FMFlg1=           0
         NFxFlg=           0 DoJE=T BraDBF=F KetDBF=T FulRan=T
         wScrn=  0.000000 ICntrl=       500 IOpCl=  0 I1Cent=   200000004 NGrid=           0
         NMat0=    1 NMatS0=      1 NMatT0=    0 NMatD0=    1 NMtDS0=    0 NMtDT0=    0
 Petite list used in FoFCou.
 Requested convergence on RMS density matrix=1.00D-08 within 128 cycles.
 Requested convergence on MAX density matrix=1.00D-06.
 Requested convergence on             energy=1.00D-06.
 No special actions if energy rises.
 FoFCou: FMM=F IPFlag=           0 FMFlag=      100000 FMFlg1=           0
         NFxFlg=           0 DoJE=T BraDBF=T KetDBF=F FulRan=T
         wScrn=  0.000000 ICntrl=       500 IOpCl=  0 I1Cent=           5 NGrid=           0
         NMat0=    1 NMatS0=      1 NMatT0=    0 NMatD0=    1 NMtDS0=    0 NMtDT0=    0
 Symmetry not used in FoFCou.
 Initial convergence to 1.0D-05 achieved.  Increase integral accuracy.
 SCF Done:  E(RB97D3) =  -193.085030198     A.U. after   12 cycles
            NFock= 12  Conv=0.24D-08     -V/T= 2.0048
   1 Symmetry operations used in ECPInt.
 ECPInt:  NShTT=    2346 NPrTT=    6892 LenC2=    2327 LenP2D=    5848.
 LDataN:  DoStor=T MaxTD1= 7 Len=  274
 Calling FoFJK, ICntrl=      2527 FMM=F ISym2X=0 I1Cent= 4 IOpClX= 0 NMat=1 NMatS=1 NMatT=0.
 ***** Axes restored to original set *****
 -------------------------------------------------------------------
 Center     Atomic                   Forces (Hartrees/Bohr)
 Number     Number              X              Y              Z
 -------------------------------------------------------------------
      1        6          -0.000343497   -0.003170615    0.000229793
      2        6           0.002901971   -0.001493477    0.001336742
      3        1          -0.001140958    0.001407883    0.000446164
      4        6          -0.000808821   -0.000629722   -0.000102841
      5        1          -0.000733698    0.001134855   -0.001756658
      6        1           0.002139219   -0.000679546   -0.000131603
      7        1          -0.000357282    0.001253105    0.002028189
      8        8           0.000927449    0.000399280   -0.003891701
      9        1          -0.000641075    0.000051646    0.003064425
     10        1          -0.001943309    0.001726589   -0.001222509
 -------------------------------------------------------------------
 Cartesian Forces:  Max     0.003891701 RMS     0.001604233

 GradGradGradGradGradGradGradGradGradGradGradGradGradGradGradGradGradGrad
 Berny optimization.
 Using GEDIIS/GDIIS optimizer.
 FormGI is forming the generalized inverse of G from B-inverse, IUseBI=4.
 Internal  Forces:  Max     0.002501906 RMS     0.001127859
 Search for a local minimum.
 Step number   3 out of a maximum of   44
 All quantities printed in internal units (Hartrees-Bohrs-Radians)
 Mixed Optimization -- RFO/linear search
 Update second derivatives using D2CorX and points    1    2    3
 DE= -1.43D-03 DEPred=-1.14D-03 R= 1.26D+00
 TightC=F SS=  1.41D+00  RLast= 3.23D-01 DXNew= 8.4853D-01 9.6868D-01
 Trust test= 1.26D+00 RLast= 3.23D-01 DXMaxT set to 8.49D-01
 ITU=  1  1  0
 Use linear search instead of GDIIS.
     Eigenvalues ---    0.00231   0.00683   0.01385   0.02739   0.03206
     Eigenvalues ---    0.06716   0.06917   0.15019   0.15991   0.16000
     Eigenvalues ---    0.16000   0.16244   0.17022   0.21915   0.22137
     Eigenvalues ---    0.27624   0.33985   0.37226   0.37230   0.37252
     Eigenvalues ---    0.39237   0.45499   0.57135   0.60572
 RFO step:  Lambda=-5.87568468D-04 EMin= 2.30918056D-03
 Quartic linear search produced a step of  0.48808.
 Iteration  1 RMS(Cart)=  0.05147987 RMS(Int)=  0.00932973
 Iteration  2 RMS(Cart)=  0.00855166 RMS(Int)=  0.00018631
 Iteration  3 RMS(Cart)=  0.00016452 RMS(Int)=  0.00005553
 Iteration  4 RMS(Cart)=  0.00000005 RMS(Int)=  0.00005553
 Variable       Old X    -DE/DX   Delta X   Delta X   Delta X     New X
                                 (Linear)    (Quad)   (Total)
    R1        2.51748   0.00129   0.00440   0.00098   0.00538   2.52286
    R2        2.05232   0.00179  -0.00177   0.00535   0.00358   2.05590
    R3        2.85573  -0.00104  -0.01375  -0.00138  -0.01513   2.84060
    R4        2.60955   0.00050  -0.01537   0.00100  -0.01436   2.59519
    R5        2.07390  -0.00250   0.00640  -0.00699  -0.00058   2.07332
    R6        2.08009  -0.00220   0.00655  -0.00509   0.00146   2.08155
    R7        2.07392  -0.00223   0.00626  -0.00588   0.00038   2.07430
    R8        2.08137  -0.00240   0.00726  -0.00626   0.00101   2.08238
    R9        1.83032  -0.00224   0.00272  -0.00544  -0.00272   1.82760
    A1        2.05274   0.00014  -0.01861   0.00436  -0.01429   2.03845
    A2        2.15866   0.00038   0.00567   0.00003   0.00566   2.16432
    A3        2.07171  -0.00053   0.01312  -0.00462   0.00846   2.08017
    A4        2.12920   0.00039   0.00054   0.00028   0.00077   2.12996
    A5        2.13858  -0.00088  -0.00400  -0.00381  -0.00787   2.13072
    A6        2.01237   0.00052   0.00443   0.00332   0.00770   2.02007
    A7        1.95731   0.00021   0.00695   0.00262   0.00946   1.96677
    A8        1.92978   0.00027   0.00642  -0.00030   0.00604   1.93582
    A9        1.95494   0.00006   0.01074  -0.00218   0.00845   1.96338
   A10        1.87181  -0.00026  -0.00825  -0.00097  -0.00927   1.86254
   A11        1.87403  -0.00016  -0.00813   0.00002  -0.00824   1.86579
   A12        1.87164  -0.00016  -0.00917   0.00080  -0.00845   1.86319
   A13        1.89315   0.00110   0.01055  -0.00216   0.00838   1.90153
    D1        0.08180  -0.00031  -0.00044  -0.00458  -0.00505   0.07676
    D2        3.13580   0.00013   0.01195  -0.00748   0.00438   3.14018
    D3       -3.04590  -0.00023  -0.00979   0.01498   0.00528  -3.04062
    D4        0.00810   0.00021   0.00260   0.01208   0.01470   0.02280
    D5        1.07175   0.00010   0.01830   0.04067   0.05904   1.13079
    D6       -3.12325   0.00010   0.01675   0.04098   0.05775  -3.06549
    D7       -1.03685   0.00012   0.01642   0.04034   0.05679  -0.98005
    D8       -2.05581   0.00018   0.00942   0.06036   0.06977  -1.98605
    D9        0.03238   0.00017   0.00786   0.06067   0.06848   0.10086
   D10        2.11878   0.00019   0.00754   0.06003   0.06752   2.18629
   D11       -2.56950  -0.00165  -0.09860  -0.13128  -0.22981  -2.79931
   D12        0.65377  -0.00200  -0.10966  -0.12824  -0.23796   0.41580
         Item               Value     Threshold  Converged?
 Maximum Force            0.002502     0.000450     NO 
 RMS     Force            0.001128     0.000300     NO 
 Maximum Displacement     0.195631     0.001800     NO 
 RMS     Displacement     0.057891     0.001200     NO 
 Predicted change in Energy=-5.388467D-04
 GradGradGradGradGradGradGradGradGradGradGradGradGradGradGradGradGradGrad

                          Input orientation:                          
 ---------------------------------------------------------------------
 Center     Atomic      Atomic             Coordinates (Angstroms)
 Number     Number       Type             X           Y           Z
 ---------------------------------------------------------------------
      1          6           0       -0.518916   -0.365695   -0.040947
      2          6           0        0.811761   -0.312054   -0.134523
      3          1           0       -1.045728    0.584849    0.009475
      4          6           0       -1.306019   -1.644497    0.027488
      5          1           0       -1.096822   -2.223790    0.940710
      6          1           0       -2.384728   -1.441404    0.022609
      7          1           0       -1.104238   -2.309990   -0.827316
      8          8           0        1.498807    0.875672   -0.077370
      9          1           0        2.376744    0.749513   -0.462912
     10          1           0        1.429027   -1.217434   -0.189419
 ---------------------------------------------------------------------
                    Distance matrix (angstroms):
                    1          2          3          4          5
     1  C    0.000000
     2  C    1.335042   0.000000
     3  H    1.087936   2.067713   0.000000
     4  C    1.503180   2.507318   2.244562   0.000000
     5  H    2.179482   2.907499   2.959435   1.101507   0.000000
     6  H    2.154633   3.393769   2.428743   1.097672   1.764578
     7  H    2.177444   2.853552   3.013923   1.101947   1.770142
     8  O    2.369288   1.373314   2.562573   3.772174   4.168986
     9  H    3.131548   1.919358   3.458841   4.419787   4.782922
    10  H    2.131193   1.097152   3.067929   2.776672   2.944462
                    6          7          8          9         10
     6  H    0.000000
     7  H    1.765352   0.000000
     8  O    4.523349   4.181710   0.000000
     9  H    5.263788   4.648718   0.967126   0.000000
    10  H    3.826205   2.831610   2.097264   2.200420   0.000000
 Stoichiometry    C3H6O
 Framework group  C1[X(C3H6O)]
 Deg. of freedom    24
 Full point group                 C1      NOp   1
 Largest Abelian subgroup         C1      NOp   1
 Largest concise Abelian subgroup C1      NOp   1
                         Standard orientation:                         
 ---------------------------------------------------------------------
 Center     Atomic      Atomic             Coordinates (Angstroms)
 Number     Number       Type             X           Y           Z
 ---------------------------------------------------------------------
      1          6           0        0.491030    0.421106    0.035679
      2          6           0       -0.597125   -0.352092    0.015169
      3          1           0        0.328141    1.496285    0.068276
      4          6           0        1.897915   -0.105946   -0.013712
      5          1           0        2.128148   -0.614085   -0.963504
      6          1           0        2.625587    0.708926    0.092873
      7          1           0        2.106925   -0.826066    0.793771
      8          8           0       -1.863608    0.174262   -0.055296
      9          1           0       -2.497355   -0.490705    0.247220
     10          1           0       -0.533509   -1.446862   -0.019087
 ---------------------------------------------------------------------
 Rotational constants (GHZ):          41.7876063           3.8860466           3.6430897
 Standard basis: def2TZVP (5D, 7F)
 There are   180 symmetry adapted cartesian basis functions of A   symmetry.
 There are   160 symmetry adapted basis functions of A   symmetry.
   160 basis functions,   252 primitive gaussians,   180 cartesian basis functions
    16 alpha electrons       16 beta electrons
       nuclear repulsion energy       115.3366713266 Hartrees.
 NAtoms=   10 NActive=   10 NUniq=   10 SFac= 1.00D+00 NAtFMM=   60 NAOKFM=F Big=F
 Integral buffers will be    131072 words long.
 Raffenetti 2 integral format.
 Two-electron integral symmetry is turned on.
 Nuclear repulsion after empirical dispersion term =      115.3196854387 Hartrees.
 Standard density basis: Auto (5D, 7F)
   734 Density fitting functions
 There are   734 symmetry adapted density basis functions of A   symmetry.
 One-electron integrals computed using PRISM.
   1 Symmetry operations used in ECPInt.
 ECPInt:  NShTT=    2346 NPrTT=    6892 LenC2=    2327 LenP2D=    5849.
 LDataN:  DoStor=T MaxTD1= 6 Len=  172
 NBasis=   160 RedAO= T EigKep=  1.56D-04  NBF=   160
 NBsUse=   160 1.00D-06 EigRej= -1.00D+00 NBFU=   160
 NBasis=      160 NBas6D=      180 NTT=       12880   NTT6D=    16290
 NDBShl=      110 NDBF=        734 NDBF6D=      928  NNucDB=        0
 IDenFi=        2 ISolve=        0 FullAP=F BlkAPC=T NucTyp=        0
 TolInv= 1.00D-06 TolIt=  1.00D-10 IR12=0.
 FoFCou: FMM=F IPFlag=           0 FMFlag=           0 FMFlg1=           0
         NFxFlg=           0 DoJE=F BraDBF=T KetDBF=T FulRan=T
         wScrn=  0.000000 ICntrl=       600 IOpCl=  3 I1Cent=           6 NGrid=           0
         NMat0=    1 NMatS0=    928 NMatT0=    0 NMatD0=    1 NMtDS0=    0 NMtDT0=    0
 Petite list used in FoFCou.
 DBF EigKep=  1.42D-06 EigRej=  5.94D-07
 NDBF=    734  NBFD=   734
 NRank=   725 NBFDU=   725
 S*AI*S=  7.53498736790    
 Initial guess from the checkpoint file:  "/home/monty/scratch/Gau-142386.chk"
 B after Tr=    -0.000000   -0.000000   -0.000000
         Rot=    0.999940   -0.010891    0.000437    0.000500 Ang=  -1.25 deg.
 Recovered     1 saved fitting vectors from chk file.
 ExpMin= 9.52D-02 ExpMax= 2.70D+04 ExpMxC= 9.22D+02 IAcc=3 IRadAn=         5 AccDes= 0.00D+00
 Harris functional with IExCor= 3630 and IRadAn=       5 diagonalized for initial guess.
 HarFok:  IExCor= 3630 AccDes= 0.00D+00 IRadAn=         5 IDoV= 1 UseB2=F ITyADJ=14
 ICtDFT=  3500011 ScaDFX=  1.000000  1.000000  1.000000  1.000000
 FoFCou: FMM=F IPFlag=           0 FMFlag=      100000 FMFlg1=           0
         NFxFlg=           0 DoJE=T BraDBF=F KetDBF=T FulRan=T
         wScrn=  0.000000 ICntrl=       500 IOpCl=  0 I1Cent=   200000004 NGrid=           0
         NMat0=    1 NMatS0=      1 NMatT0=    0 NMatD0=    1 NMtDS0=    0 NMtDT0=    0
 Petite list used in FoFCou.
 Requested convergence on RMS density matrix=1.00D-08 within 128 cycles.
 Requested convergence on MAX density matrix=1.00D-06.
 Requested convergence on             energy=1.00D-06.
 No special actions if energy rises.
 FoFCou: FMM=F IPFlag=           0 FMFlag=      100000 FMFlg1=           0
         NFxFlg=           0 DoJE=T BraDBF=T KetDBF=F FulRan=T
         wScrn=  0.000000 ICntrl=       500 IOpCl=  0 I1Cent=           5 NGrid=           0
         NMat0=    1 NMatS0=      1 NMatT0=    0 NMatD0=    1 NMtDS0=    0 NMtDT0=    0
 Symmetry not used in FoFCou.
 Initial convergence to 1.0D-05 achieved.  Increase integral accuracy.
 SCF Done:  E(RB97D3) =  -193.085694693     A.U. after   12 cycles
            NFock= 12  Conv=0.29D-08     -V/T= 2.0047
   1 Symmetry operations used in ECPInt.
 ECPInt:  NShTT=    2346 NPrTT=    6892 LenC2=    2327 LenP2D=    5849.
 LDataN:  DoStor=T MaxTD1= 7 Len=  274
 Calling FoFJK, ICntrl=      2527 FMM=F ISym2X=0 I1Cent= 4 IOpClX= 0 NMat=1 NMatS=1 NMatT=0.
 ***** Axes restored to original set *****
 -------------------------------------------------------------------
 Center     Atomic                   Forces (Hartrees/Bohr)
 Number     Number              X              Y              Z
 -------------------------------------------------------------------
      1        6           0.003448133    0.002113677   -0.000094622
      2        6          -0.000837089   -0.005936868    0.001882320
      3        1          -0.001681613   -0.000027650    0.000863088
      4        6          -0.003428620   -0.004840175   -0.000851796
      5        1          -0.000203777    0.001730531   -0.001380191
      6        1           0.002136799    0.000073908   -0.000239065
      7        1           0.000175597    0.001686530    0.001864530
      8        8           0.003178678    0.002968335   -0.002850975
      9        1          -0.001309968    0.000091295    0.001605008
     10        1          -0.001478139    0.002140418   -0.000798297
 -------------------------------------------------------------------
 Cartesian Forces:  Max     0.005936868 RMS     0.002236118

 GradGradGradGradGradGradGradGradGradGradGradGradGradGradGradGradGradGrad
 Berny optimization.
 Using GEDIIS/GDIIS optimizer.
 FormGI is forming the generalized inverse of G from B-inverse, IUseBI=4.
 Internal  Forces:  Max     0.003529250 RMS     0.001257160
 Search for a local minimum.
 Step number   4 out of a maximum of   44
 All quantities printed in internal units (Hartrees-Bohrs-Radians)
 Mixed Optimization -- RFO/linear search
 Update second derivatives using D2CorX and points    3    4
 DE= -6.64D-04 DEPred=-5.39D-04 R= 1.23D+00
 TightC=F SS=  1.41D+00  RLast= 3.68D-01 DXNew= 1.4270D+00 1.1035D+00
 Trust test= 1.23D+00 RLast= 3.68D-01 DXMaxT set to 1.10D+00
 ITU=  1  1  1  0
 Use linear search instead of GDIIS.
     Eigenvalues ---    0.00155   0.00610   0.01382   0.02779   0.03396
     Eigenvalues ---    0.06610   0.06840   0.15903   0.15993   0.16000
     Eigenvalues ---    0.16051   0.16618   0.17000   0.22067   0.22159
     Eigenvalues ---    0.28941   0.34068   0.37224   0.37233   0.37245
     Eigenvalues ---    0.39619   0.43968   0.56082   0.60617
 RFO step:  Lambda=-6.04009358D-04 EMin= 1.54965208D-03
 Quartic linear search produced a step of  0.52874.
 Iteration  1 RMS(Cart)=  0.07933697 RMS(Int)=  0.00778080
 Iteration  2 RMS(Cart)=  0.00606205 RMS(Int)=  0.00014766
 Iteration  3 RMS(Cart)=  0.00008501 RMS(Int)=  0.00012352
 Iteration  4 RMS(Cart)=  0.00000002 RMS(Int)=  0.00012352
 Variable       Old X    -DE/DX   Delta X   Delta X   Delta X     New X
                                 (Linear)    (Quad)   (Total)
    R1        2.52286  -0.00046   0.00284  -0.00048   0.00236   2.52523
    R2        2.05590   0.00083   0.00189   0.00091   0.00280   2.05871
    R3        2.84060   0.00181  -0.00800   0.00515  -0.00285   2.83775
    R4        2.59519   0.00353  -0.00760   0.00431  -0.00329   2.59190
    R5        2.07332  -0.00256  -0.00031  -0.00466  -0.00497   2.06835
    R6        2.08155  -0.00209   0.00077  -0.00232  -0.00155   2.08000
    R7        2.07430  -0.00209   0.00020  -0.00288  -0.00268   2.07162
    R8        2.08238  -0.00243   0.00053  -0.00352  -0.00299   2.07939
    R9        1.82760  -0.00184  -0.00144  -0.00307  -0.00451   1.82309
    A1        2.03845   0.00183  -0.00756   0.00829   0.00072   2.03917
    A2        2.16432  -0.00050   0.00299  -0.00215   0.00083   2.16515
    A3        2.08017  -0.00133   0.00447  -0.00588  -0.00143   2.07874
    A4        2.12996   0.00044   0.00041   0.00210   0.00210   2.13206
    A5        2.13072  -0.00020  -0.00416   0.00031  -0.00426   2.12646
    A6        2.02007  -0.00016   0.00407   0.00070   0.00437   2.02444
    A7        1.96677  -0.00075   0.00500  -0.00313   0.00185   1.96862
    A8        1.93582  -0.00038   0.00319  -0.00209   0.00109   1.93691
    A9        1.96338  -0.00049   0.00447  -0.00068   0.00377   1.96715
   A10        1.86254   0.00056  -0.00490   0.00129  -0.00362   1.85893
   A11        1.86579   0.00064  -0.00436   0.00227  -0.00211   1.86368
   A12        1.86319   0.00057  -0.00447   0.00286  -0.00162   1.86156
   A13        1.90153   0.00017   0.00443  -0.00210   0.00233   1.90386
    D1        0.07676  -0.00098  -0.00267  -0.03266  -0.03526   0.04150
    D2        3.14018   0.00024   0.00232   0.01705   0.01935  -3.12366
    D3       -3.04062  -0.00113   0.00279  -0.04511  -0.04230  -3.08292
    D4        0.02280   0.00009   0.00777   0.00460   0.01231   0.03511
    D5        1.13079   0.00039   0.03122   0.13266   0.16387   1.29466
    D6       -3.06549   0.00032   0.03054   0.13074   0.16126  -2.90423
    D7       -0.98005   0.00046   0.03003   0.13248   0.16249  -0.81757
    D8       -1.98605   0.00019   0.03689   0.11975   0.15665  -1.82939
    D9        0.10086   0.00013   0.03621   0.11782   0.15404   0.25490
   D10        2.18629   0.00027   0.03570   0.11957   0.15527   2.34157
   D11       -2.79931  -0.00025  -0.12151  -0.07616  -0.19757  -2.99688
   D12        0.41580  -0.00139  -0.12582  -0.12290  -0.24882   0.16698
         Item               Value     Threshold  Converged?
 Maximum Force            0.003529     0.000450     NO 
 RMS     Force            0.001257     0.000300     NO 
 Maximum Displacement     0.218059     0.001800     NO 
 RMS     Displacement     0.081552     0.001200     NO 
 Predicted change in Energy=-4.612690D-04
 GradGradGradGradGradGradGradGradGradGradGradGradGradGradGradGradGradGrad

                          Input orientation:                          
 ---------------------------------------------------------------------
 Center     Atomic      Atomic             Coordinates (Angstroms)
 Number     Number       Type             X           Y           Z
 ---------------------------------------------------------------------
      1          6           0       -0.520855   -0.364610   -0.011151
      2          6           0        0.804856   -0.303345   -0.167398
      3          1           0       -1.047003    0.582578    0.102157
      4          6           0       -1.303606   -1.645236    0.036948
      5          1           0       -1.176302   -2.187417    0.986342
      6          1           0       -2.377525   -1.453050   -0.070449
      7          1           0       -1.026074   -2.343200   -0.767182
      8          8           0        1.489221    0.884940   -0.138399
      9          1           0        2.404943    0.727959   -0.398262
     10          1           0        1.412234   -1.203450   -0.304811
 ---------------------------------------------------------------------
                    Distance matrix (angstroms):
                    1          2          3          4          5
     1  C    0.000000
     2  C    1.336292   0.000000
     3  H    1.089420   2.070483   0.000000
     4  C    1.501671   2.507597   2.243491   0.000000
     5  H    2.178813   2.967461   2.910563   1.100688   0.000000
     6  H    2.153008   3.385080   2.438004   1.096254   1.760409
     7  H    2.177532   2.805896   3.052272   1.100365   1.766828
     8  O    2.370226   1.371575   2.565487   3.772588   4.220122
     9  H    3.147039   1.917593   3.491058   4.424342   4.820981
    10  H    2.127609   1.094523   3.066491   2.772682   3.055451
                    6          7          8          9         10
     6  H    0.000000
     7  H    1.761881   0.000000
     8  O    4.519130   4.140406   0.000000
     9  H    5.266523   4.619523   0.964738   0.000000
    10  H    3.805194   2.730964   2.096423   2.173601   0.000000
 Stoichiometry    C3H6O
 Framework group  C1[X(C3H6O)]
 Deg. of freedom    24
 Full point group                 C1      NOp   1
 Largest Abelian subgroup         C1      NOp   1
 Largest concise Abelian subgroup C1      NOp   1
                         Standard orientation:                         
 ---------------------------------------------------------------------
 Center     Atomic      Atomic             Coordinates (Angstroms)
 Number     Number       Type             X           Y           Z
 ---------------------------------------------------------------------
      1          6           0        0.493028    0.422053    0.021927
      2          6           0       -0.598398   -0.348863    0.009550
      3          1           0        0.333835    1.499613    0.040828
      4          6           0        1.897558   -0.108316   -0.010009
      5          1           0        2.187952   -0.486929   -1.001895
      6          1           0        2.619088    0.675771    0.247620
      7          1           0        2.057378   -0.930804    0.703275
      8          8           0       -1.864088    0.178219   -0.028254
      9          1           0       -2.505149   -0.531182    0.100242
     10          1           0       -0.533532   -1.441459    0.007155
 ---------------------------------------------------------------------
 Rotational constants (GHZ):          42.0150743           3.8858419           3.6390184
 Standard basis: def2TZVP (5D, 7F)
 There are   180 symmetry adapted cartesian basis functions of A   symmetry.
 There are   160 symmetry adapted basis functions of A   symmetry.
   160 basis functions,   252 primitive gaussians,   180 cartesian basis functions
    16 alpha electrons       16 beta electrons
       nuclear repulsion energy       115.3788219202 Hartrees.
 NAtoms=   10 NActive=   10 NUniq=   10 SFac= 1.00D+00 NAtFMM=   60 NAOKFM=F Big=F
 Integral buffers will be    131072 words long.
 Raffenetti 2 integral format.
 Two-electron integral symmetry is turned on.
 Nuclear repulsion after empirical dispersion term =      115.3618379640 Hartrees.
 Standard density basis: Auto (5D, 7F)
   734 Density fitting functions
 There are   734 symmetry adapted density basis functions of A   symmetry.
 One-electron integrals computed using PRISM.
   1 Symmetry operations used in ECPInt.
 ECPInt:  NShTT=    2346 NPrTT=    6892 LenC2=    2328 LenP2D=    5850.
 LDataN:  DoStor=T MaxTD1= 6 Len=  172
 NBasis=   160 RedAO= T EigKep=  1.55D-04  NBF=   160
 NBsUse=   160 1.00D-06 EigRej= -1.00D+00 NBFU=   160
 NBasis=      160 NBas6D=      180 NTT=       12880   NTT6D=    16290
 NDBShl=      110 NDBF=        734 NDBF6D=      928  NNucDB=        0
 IDenFi=        2 ISolve=        0 FullAP=F BlkAPC=T NucTyp=        0
 TolInv= 1.00D-06 TolIt=  1.00D-10 IR12=0.
 FoFCou: FMM=F IPFlag=           0 FMFlag=           0 FMFlg1=           0
         NFxFlg=           0 DoJE=F BraDBF=T KetDBF=T FulRan=T
         wScrn=  0.000000 ICntrl=       600 IOpCl=  3 I1Cent=           6 NGrid=           0
         NMat0=    1 NMatS0=    928 NMatT0=    0 NMatD0=    1 NMtDS0=    0 NMtDT0=    0
 Petite list used in FoFCou.
 DBF EigKep=  1.32D-06 EigRej=  5.90D-07
 NDBF=    734  NBFD=   734
 NRank=   725 NBFDU=   725
 S*AI*S=  7.53047651227    
 Initial guess from the checkpoint file:  "/home/monty/scratch/Gau-142386.chk"
 B after Tr=     0.000000    0.000000    0.000000
         Rot=    0.999758   -0.021976    0.001267    0.000310 Ang=  -2.52 deg.
 Recovered     1 saved fitting vectors from chk file.
 ExpMin= 9.52D-02 ExpMax= 2.70D+04 ExpMxC= 9.22D+02 IAcc=3 IRadAn=         5 AccDes= 0.00D+00
 Harris functional with IExCor= 3630 and IRadAn=       5 diagonalized for initial guess.
 HarFok:  IExCor= 3630 AccDes= 0.00D+00 IRadAn=         5 IDoV= 1 UseB2=F ITyADJ=14
 ICtDFT=  3500011 ScaDFX=  1.000000  1.000000  1.000000  1.000000
 FoFCou: FMM=F IPFlag=           0 FMFlag=      100000 FMFlg1=           0
         NFxFlg=           0 DoJE=T BraDBF=F KetDBF=T FulRan=T
         wScrn=  0.000000 ICntrl=       500 IOpCl=  0 I1Cent=   200000004 NGrid=           0
         NMat0=    1 NMatS0=      1 NMatT0=    0 NMatD0=    1 NMtDS0=    0 NMtDT0=    0
 Petite list used in FoFCou.
 Requested convergence on RMS density matrix=1.00D-08 within 128 cycles.
 Requested convergence on MAX density matrix=1.00D-06.
 Requested convergence on             energy=1.00D-06.
 No special actions if energy rises.
 FoFCou: FMM=F IPFlag=           0 FMFlag=      100000 FMFlg1=           0
         NFxFlg=           0 DoJE=T BraDBF=T KetDBF=F FulRan=T
         wScrn=  0.000000 ICntrl=       500 IOpCl=  0 I1Cent=           5 NGrid=           0
         NMat0=    1 NMatS0=      1 NMatT0=    0 NMatD0=    1 NMtDS0=    0 NMtDT0=    0
 Symmetry not used in FoFCou.
 Initial convergence to 1.0D-05 achieved.  Increase integral accuracy.
 SCF Done:  E(RB97D3) =  -193.086408469     A.U. after   11 cycles
            NFock= 11  Conv=0.86D-08     -V/T= 2.0047
   1 Symmetry operations used in ECPInt.
 ECPInt:  NShTT=    2346 NPrTT=    6892 LenC2=    2328 LenP2D=    5850.
 LDataN:  DoStor=T MaxTD1= 7 Len=  274
 Calling FoFJK, ICntrl=      2527 FMM=F ISym2X=0 I1Cent= 4 IOpClX= 0 NMat=1 NMatS=1 NMatT=0.
 ***** Axes restored to original set *****
 -------------------------------------------------------------------
 Center     Atomic                   Forces (Hartrees/Bohr)
 Number     Number              X              Y              Z
 -------------------------------------------------------------------
      1        6           0.004038150    0.003301516   -0.000464504
      2        6          -0.003166246   -0.005753609   -0.000254743
      3        1          -0.001216276   -0.000887615    0.001367563
      4        6          -0.003046827   -0.004729379   -0.001027452
      5        1          -0.000067752    0.001493374   -0.000292612
      6        1           0.001025507    0.000468199   -0.000330948
      7        1           0.000832653    0.001536124    0.001348803
      8        8           0.002334903    0.003395678   -0.000714335
      9        1          -0.000274316   -0.000096877    0.000251624
     10        1          -0.000459796    0.001272589    0.000116606
 -------------------------------------------------------------------
 Cartesian Forces:  Max     0.005753609 RMS     0.002125385

 GradGradGradGradGradGradGradGradGradGradGradGradGradGradGradGradGradGrad
 Berny optimization.
 Using GEDIIS/GDIIS optimizer.
 FormGI is forming the generalized inverse of G from B-inverse, IUseBI=4.
 Internal  Forces:  Max     0.003876305 RMS     0.001109443
 Search for a local minimum.
 Step number   5 out of a maximum of   44
 All quantities printed in internal units (Hartrees-Bohrs-Radians)
 Mixed Optimization -- RFO/linear search
 Update second derivatives using D2CorX and points    4    5
 DE= -7.14D-04 DEPred=-4.61D-04 R= 1.55D+00
 TightC=F SS=  1.41D+00  RLast= 5.06D-01 DXNew= 1.8559D+00 1.5189D+00
 Trust test= 1.55D+00 RLast= 5.06D-01 DXMaxT set to 1.52D+00
 ITU=  1  1  1  1  0
 Use linear search instead of GDIIS.
     Eigenvalues ---    0.00012   0.01347   0.01440   0.02991   0.03662
     Eigenvalues ---    0.06596   0.06820   0.15604   0.15997   0.15999
     Eigenvalues ---    0.16054   0.16381   0.17154   0.21979   0.22232
     Eigenvalues ---    0.28258   0.34177   0.37176   0.37233   0.37320
     Eigenvalues ---    0.39778   0.42384   0.57097   0.62410
 RFO step:  Lambda=-9.35675802D-04 EMin= 1.24620327D-04
 Quartic linear search produced a step of  2.00000.
 Iteration  1 RMS(Cart)=  0.09694866 RMS(Int)=  0.15171057
 Iteration  2 RMS(Cart)=  0.09667494 RMS(Int)=  0.05473826
 Iteration  3 RMS(Cart)=  0.05361641 RMS(Int)=  0.00181314
 Iteration  4 RMS(Cart)=  0.00171099 RMS(Int)=  0.00085748
 Iteration  5 RMS(Cart)=  0.00000144 RMS(Int)=  0.00085747
 Iteration  6 RMS(Cart)=  0.00000000 RMS(Int)=  0.00085747
 Variable       Old X    -DE/DX   Delta X   Delta X   Delta X     New X
                                 (Linear)    (Quad)   (Total)
    R1        2.52523  -0.00154   0.00472  -0.00213   0.00259   2.52782
    R2        2.05871  -0.00004   0.00561   0.00067   0.00628   2.06499
    R3        2.83775   0.00170  -0.00570   0.00411  -0.00159   2.83616
    R4        2.59190   0.00388  -0.00657   0.00903   0.00245   2.59435
    R5        2.06835  -0.00132  -0.00994  -0.00514  -0.01508   2.05327
    R6        2.08000  -0.00100  -0.00310  -0.00300  -0.00610   2.07390
    R7        2.07162  -0.00089  -0.00536  -0.00303  -0.00839   2.06323
    R8        2.07939  -0.00175  -0.00598  -0.00623  -0.01221   2.06718
    R9        1.82309  -0.00031  -0.00902  -0.00174  -0.01076   1.81233
    A1        2.03917   0.00210   0.00145   0.01341   0.01483   2.05400
    A2        2.16515  -0.00087   0.00165  -0.00416  -0.00254   2.16260
    A3        2.07874  -0.00123  -0.00285  -0.00930  -0.01218   2.06656
    A4        2.13206   0.00031   0.00420   0.00219   0.00356   2.13563
    A5        2.12646   0.00019  -0.00851  -0.00015  -0.01147   2.11499
    A6        2.02444  -0.00049   0.00874  -0.00176   0.00411   2.02855
    A7        1.96862  -0.00097   0.00371  -0.00655  -0.00285   1.96578
    A8        1.93691  -0.00043   0.00218  -0.00145   0.00071   1.93762
    A9        1.96715  -0.00116   0.00753  -0.00769  -0.00016   1.96698
   A10        1.85893   0.00072  -0.00724   0.00313  -0.00411   1.85482
   A11        1.86368   0.00105  -0.00423   0.00563   0.00139   1.86507
   A12        1.86156   0.00104  -0.00324   0.00847   0.00521   1.86678
   A13        1.90386  -0.00022   0.00467  -0.00044   0.00422   1.90809
    D1        0.04150  -0.00046  -0.07052  -0.01948  -0.08962  -0.04812
    D2       -3.12366  -0.00012   0.03869  -0.00461   0.03381  -3.08985
    D3       -3.08292  -0.00048  -0.08459  -0.01623  -0.10054   3.09972
    D4        0.03511  -0.00013   0.02462  -0.00135   0.02288   0.05799
    D5        1.29466   0.00055   0.32773   0.18760   0.51530   1.80996
    D6       -2.90423   0.00051   0.32252   0.18616   0.50864  -2.39560
    D7       -0.81757   0.00074   0.32497   0.19076   0.51570  -0.30186
    D8       -1.82939   0.00050   0.31331   0.19071   0.50406  -1.32534
    D9        0.25490   0.00046   0.30809   0.18927   0.49739   0.75229
   D10        2.34157   0.00070   0.31055   0.19387   0.50446   2.84602
   D11       -2.99688   0.00000  -0.39514  -0.07034  -0.46502   2.82128
   D12        0.16698  -0.00033  -0.49764  -0.08442  -0.58252  -0.41554
         Item               Value     Threshold  Converged?
 Maximum Force            0.003876     0.000450     NO 
 RMS     Force            0.001109     0.000300     NO 
 Maximum Displacement     0.608364     0.001800     NO 
 RMS     Displacement     0.242722     0.001200     NO 
 Predicted change in Energy=-1.921867D-03
 GradGradGradGradGradGradGradGradGradGradGradGradGradGradGradGradGradGrad

                          Input orientation:                          
 ---------------------------------------------------------------------
 Center     Atomic      Atomic             Coordinates (Angstroms)
 Number     Number       Type             X           Y           Z
[...]
 Translational   0.173806D+08          7.240066         16.670868
 Rotational      0.355673D+05          4.551051         10.479182
 ***** Axes restored to original set *****
 -------------------------------------------------------------------
 Center     Atomic                   Forces (Hartrees/Bohr)
 Number     Number              X              Y              Z
 -------------------------------------------------------------------
      1        6           0.000032064    0.000016019    0.000005366
      2        6           0.000014142    0.000050737    0.000009736
      3        1          -0.000017463   -0.000014928    0.000002685
      4        6          -0.000017241   -0.000010720   -0.000018155
      5        1           0.000004332    0.000009204    0.000012085
      6        1          -0.000001197    0.000003374   -0.000001200
      7        1           0.000010147    0.000000958   -0.000001123
      8        8          -0.000034565   -0.000027362   -0.000000305
      9        1           0.000012376   -0.000005792   -0.000003929
     10        1          -0.000002595   -0.000021489   -0.000005161
 -------------------------------------------------------------------
 Cartesian Forces:  Max     0.000050737 RMS     0.000016802
 FormGI is forming the generalized inverse of G from B-inverse, IUseBI=4.

 GradGradGradGradGradGradGradGradGradGradGradGradGradGradGradGradGradGrad
 Berny optimization.
 Internal  Forces:  Max     0.000040117 RMS     0.000012178
 Search for a local minimum.
 Step number   1 out of a maximum of    2
 All quantities printed in internal units (Hartrees-Bohrs-Radians)
 Second derivative matrix not updated -- analytic derivatives used.
 ITU=  0
     Eigenvalues ---    0.00198   0.00269   0.01433   0.02530   0.04013
     Eigenvalues ---    0.05582   0.05624   0.10010   0.11547   0.12080
     Eigenvalues ---    0.13429   0.14296   0.15873   0.16445   0.20021
     Eigenvalues ---    0.30589   0.31309   0.32226   0.33195   0.33626
     Eigenvalues ---    0.34261   0.39776   0.51273   0.59774
 Angle between quadratic step and forces=  70.09 degrees.
 Linear search not attempted -- first point.
 Iteration  1 RMS(Cart)=  0.00026788 RMS(Int)=  0.00000008
 Iteration  2 RMS(Cart)=  0.00000009 RMS(Int)=  0.00000000
 Variable       Old X    -DE/DX   Delta X   Delta X   Delta X     New X
                                 (Linear)    (Quad)   (Total)
    R1        2.52095  -0.00001   0.00000  -0.00001  -0.00001   2.52094
    R2        2.05927  -0.00000   0.00000  -0.00002  -0.00002   2.05926
    R3        2.83231   0.00000   0.00000   0.00005   0.00005   2.83237
    R4        2.60394  -0.00004   0.00000  -0.00014  -0.00014   2.60380
    R5        2.06265   0.00002   0.00000   0.00006   0.00006   2.06271
    R6        2.07646   0.00001   0.00000   0.00002   0.00002   2.07648
    R7        2.07648   0.00000   0.00000  -0.00000  -0.00000   2.07648
    R8        2.07140   0.00001   0.00000   0.00001   0.00001   2.07141
    R9        1.82223   0.00001   0.00000   0.00003   0.00003   1.82225
    A1        2.06516   0.00003   0.00000   0.00029   0.00029   2.06545
    A2        2.15602  -0.00001   0.00000  -0.00010  -0.00010   2.15592
    A3        2.06200  -0.00002   0.00000  -0.00019  -0.00019   2.06181
    A4        2.13485   0.00001   0.00000   0.00013   0.00013   2.13498
    A5        2.12631  -0.00002   0.00000  -0.00023  -0.00023   2.12608
    A6        2.02202   0.00001   0.00000   0.00010   0.00010   2.02212
    A7        1.94655  -0.00002   0.00000  -0.00016  -0.00016   1.94639
    A8        1.94638   0.00000   0.00000   0.00002   0.00002   1.94639
    A9        1.94539  -0.00001   0.00000  -0.00005  -0.00005   1.94534
   A10        1.86190   0.00001   0.00000   0.00007   0.00007   1.86197
   A11        1.87984   0.00001   0.00000   0.00006   0.00006   1.87990
   A12        1.87982   0.00001   0.00000   0.00008   0.00008   1.87990
   A13        1.89863  -0.00001   0.00000  -0.00001  -0.00001   1.89863
    D1        0.00013  -0.00000   0.00000  -0.00013  -0.00013  -0.00000
    D2       -3.14157  -0.00000   0.00000  -0.00003  -0.00003  -3.14159
    D3       -3.14137  -0.00000   0.00000  -0.00022  -0.00022  -3.14159
    D4        0.00011  -0.00000   0.00000  -0.00011  -0.00011   0.00000
    D5        2.10144  -0.00000   0.00000   0.00031   0.00031   2.10176
    D6       -2.10206  -0.00000   0.00000   0.00030   0.00030  -2.10176
    D7       -0.00038   0.00000   0.00000   0.00038   0.00038  -0.00000
    D8       -1.04006  -0.00000   0.00000   0.00023   0.00023  -1.03984
    D9        1.03962  -0.00000   0.00000   0.00021   0.00021   1.03983
   D10        3.14130   0.00000   0.00000   0.00029   0.00029   3.14159
   D11       -3.14076  -0.00000   0.00000  -0.00083  -0.00083   3.14159
   D12        0.00093  -0.00000   0.00000  -0.00093  -0.00093  -0.00000
         Item               Value     Threshold  Converged?
 Maximum Force            0.000040     0.000450     YES
 RMS     Force            0.000012     0.000300     YES
 Maximum Displacement     0.000588     0.001800     YES
 RMS     Displacement     0.000268     0.001200     YES
 Predicted change in Energy=-1.880888D-08
 Optimization completed.
    -- Stationary point found.
                           ----------------------------
                           !   Optimized Parameters   !
                           ! (Angstroms and Degrees)  !
 --------------------------                            --------------------------
 ! Name  Definition              Value          Derivative Info.                !
 --------------------------------------------------------------------------------
 ! R1    R(1,2)                  1.334          -DE/DX =    0.0                 !
 ! R2    R(1,3)                  1.0897         -DE/DX =    0.0                 !
 ! R3    R(1,4)                  1.4988         -DE/DX =    0.0                 !
 ! R4    R(2,8)                  1.3779         -DE/DX =    0.0                 !
 ! R5    R(2,10)                 1.0915         -DE/DX =    0.0                 !
 ! R6    R(4,5)                  1.0988         -DE/DX =    0.0                 !
 ! R7    R(4,6)                  1.0988         -DE/DX =    0.0                 !
 ! R8    R(4,7)                  1.0961         -DE/DX =    0.0                 !
 ! R9    R(8,9)                  0.9643         -DE/DX =    0.0                 !
 ! A1    A(2,1,3)              118.3251         -DE/DX =    0.0                 !
 ! A2    A(2,1,4)              123.531          -DE/DX =    0.0                 !
 ! A3    A(3,1,4)              118.1439         -DE/DX =    0.0                 !
 ! A4    A(1,2,8)              122.3182         -DE/DX =    0.0                 !
 ! A5    A(1,2,10)             121.8286         -DE/DX =    0.0                 !
 ! A6    A(8,2,10)             115.8532         -DE/DX =    0.0                 !
 ! A7    A(1,4,5)              111.5293         -DE/DX =    0.0                 !
 ! A8    A(1,4,6)              111.5192         -DE/DX =    0.0                 !
 ! A9    A(1,4,7)              111.4624         -DE/DX =    0.0                 !
 ! A10   A(5,4,6)              106.6791         -DE/DX =    0.0                 !
 ! A11   A(5,4,7)              107.7067         -DE/DX =    0.0                 !
 ! A12   A(6,4,7)              107.7058         -DE/DX =    0.0                 !
 ! A13   A(2,8,9)              108.7836         -DE/DX =    0.0                 !
 ! D1    D(3,1,2,8)              0.0076         -DE/DX =    0.0                 !
 ! D2    D(3,1,2,10)          -179.9985         -DE/DX =    0.0                 !
 ! D3    D(4,1,2,8)           -179.9875         -DE/DX =    0.0                 !
 ! D4    D(4,1,2,10)             0.0064         -DE/DX =    0.0                 !
 ! D5    D(2,1,4,5)            120.4038         -DE/DX =    0.0                 !
 ! D6    D(2,1,4,6)           -120.439          -DE/DX =    0.0                 !
 ! D7    D(2,1,4,7)             -0.0217         -DE/DX =    0.0                 !
 ! D8    D(3,1,4,5)            -59.5913         -DE/DX =    0.0                 !
 ! D9    D(3,1,4,6)             59.5658         -DE/DX =    0.0                 !
 ! D10   D(3,1,4,7)            179.9832         -DE/DX =    0.0                 !
 ! D11   D(1,2,8,9)            180.0474         -DE/DX =    0.0                 !
 ! D12   D(10,2,8,9)             0.0532         -DE/DX =    0.0                 !
 --------------------------------------------------------------------------------
 GradGradGradGradGradGradGradGradGradGradGradGradGradGradGradGradGradGrad


 ----------------------------------------------------------------------

 Electric dipole moment (input orientation):
 (Debye = 10**-18 statcoulomb cm , SI units = C m)
                  (au)            (Debye)         (10**-30 SI)
   Tot        0.649962D+00      0.165204D+01      0.551061D+01
   x          0.457003D+00      0.116159D+01      0.387463D+01
   y         -0.378869D+00     -0.962990D+00     -0.321219D+01
   z         -0.264684D+00     -0.672760D+00     -0.224409D+01

 Dipole polarizability, Alpha (input orientation).
 (esu units = cm**3 , SI units = C**2 m**2 J**-1)
 Alpha(0;0):
               (au)            (10**-24 esu)      (10**-40 SI)
   iso        0.438017D+02      0.649074D+01      0.722192D+01
   aniso      0.271011D+02      0.401597D+01      0.446837D+01
   xx         0.558656D+02      0.827843D+01      0.921099D+01
   yx         0.890595D+01      0.131973D+01      0.146839D+01
   yy         0.425187D+02      0.630062D+01      0.701039D+01
   zx        -0.580266D+01     -0.859865D+00     -0.956729D+00
   zy         0.360861D+00      0.534741D-01      0.594979D-01
   zz         0.330207D+02      0.489316D+01      0.544438D+01

 ----------------------------------------------------------------------

 Dipole orientation:
     6         -0.61872518          0.98583061         -0.34019743
     6          0.45676859         -0.28807480          1.55075047
     1         -0.15995595          0.43932745         -2.27189648
     6         -2.42647652          3.13143135          0.04764936
     1         -1.72576611          4.88412695         -0.81766315
     1         -4.27312997          2.73716457         -0.81618230
     1         -2.73951521          3.50421471          2.06103873
     8          2.11385850         -2.25417971          1.13965976
     1          2.66254019         -2.90565712          2.75057119
     1          0.07429577          0.16788194          3.52568250

 Electric dipole moment (dipole orientation):
 (Debye = 10**-18 statcoulomb cm , SI units = C m)
                  (au)            (Debye)         (10**-30 SI)
   Tot        0.649962D+00      0.165204D+01      0.551061D+01
   x          0.000000D+00      0.000000D+00      0.000000D+00
   y          0.000000D+00      0.000000D+00      0.000000D+00
   z          0.649962D+00      0.165204D+01      0.551061D+01

 Dipole polarizability, Alpha (dipole orientation).
 (esu units = cm**3 , SI units = C**2 m**2 J**-1)
 Alpha(0;0):
               (au)            (10**-24 esu)      (10**-40 SI)
   iso        0.438017D+02      0.649074D+01      0.722192D+01
   aniso      0.271011D+02      0.401597D+01      0.446837D+01
   xx         0.416591D+02      0.617324D+01      0.686866D+01
   yx        -0.126892D+02     -0.188034D+01     -0.209216D+01
   yy         0.460099D+02      0.681796D+01      0.758600D+01
   zx         0.573683D+01      0.850111D+00      0.945876D+00
   zy        -0.679424D+01     -0.100680D+01     -0.112022D+01
   zz         0.437360D+02      0.648101D+01      0.721109D+01

 ----------------------------------------------------------------------
 Unable to Open any file for archive entry.
 1\1\GINC-RTX\Freq\RB97D3\def2TZVP/Auto\C3H6O1\MONTY\21-Mar-2026\0\\#N 
 Geom=AllCheck Guess=TCheck SCRF=Check GenChk RB97D3/def2TZVP/Auto Freq
 \\trans 1-propenol\\0,1\C,-0.490908167,-0.3861384219,0.1471904361\C,0.
 7781908018,-0.2923152852,-0.2530893405\H,-0.9679366998,0.4997940181,0.
 5655865983\C,-1.2978325273,-1.6456444247,0.0528272107\H,-1.6493929157,
 -1.9742719114,1.0406576573\H,-2.1923779292,-1.5055363853,-0.5697318185
 \H,-0.7136098771,-2.4645829312,-0.382536162\O,1.4970847039,0.879089773
 6,-0.1544068969\H,2.385219682,0.7282544097,-0.4983581507\H,1.311450828
 4,-1.1434787116,-0.6803441839\\Version=ES64L-G16RevC.01\State=1-A\HF=-
 193.0893792\RMSD=8.331e-10\RMSF=1.680e-05\ZeroPoint=0.0825131\Thermal=
 0.0878447\ETot=-193.0015345\HTot=-193.0005903\GTot=-193.0340779\Dipole
 =0.4570027,-0.3788694,-0.2646841\DipoleDeriv=-0.2472215,-0.1072978,-0.
 0503997,0.0904861,0.0439159,0.0707156,0.0071306,0.1373306,-0.2665459,0
 .8194682,0.4438597,-0.186403,0.7540084,0.7371047,-0.0055025,-0.0960806
 ,0.0990639,-0.0561852,0.030018,0.0161466,0.0472534,0.0186353,-0.084851
 4,-0.076426,0.047994,-0.0755999,0.1181789,0.1239536,-0.0069264,0.01776
 2,0.0441118,0.128915,-0.0305349,0.0326933,-0.0132646,0.1678523,0.00786
 14,-0.0610469,0.056541,-0.1085185,-0.0150442,0.0520959,0.0940589,0.084
 7167,-0.1130097,-0.1347899,-0.0387485,-0.0910713,-0.033902,0.0076779,0
 .0354637,-0.1409808,-0.0115214,0.006937,-0.0224923,0.1126173,0.0623594
 ,0.0211186,-0.085504,-0.0509879,0.0357209,-0.0818428,0.0293688,-0.8357
 7,-0.4535376,0.0398382,-0.8715516,-0.8887093,0.1299155,-0.0820409,-0.0
 110498,-0.300906,0.266576,0.0614121,0.0400914,0.0611321,0.2527668,-0.0
 43838,0.0402124,-0.0438401,0.3059017,-0.0076035,0.0335215,0.0640286,0.
 0244798,-0.0962715,-0.0809014,0.0612923,-0.0839926,0.1084079\Polar=55.
 8655821,8.9059488,42.5186965,-5.8026566,0.3608609,33.0207007\Quadrupol
 e=3.5693693,-2.0298557,-1.5395135,0.0826174,-1.9200127,0.0180092\PG=C0
 1 [X(C3H6O1)]\NImag=0\\0.73703011,0.02781945,0.53541241,-0.20085457,0.
 11235354,0.21722891,-0.46431239,-0.00963728,0.13779462,0.77777260,-0.0
 1623899,-0.10258188,-0.01067839,0.01539020,0.53684453,0.13586453,-0.01
 291040,-0.09657195,-0.21929437,0.11793056,0.22186964,-0.10431231,0.091
 13687,0.05045519,-0.01024549,0.02698282,0.01369102,0.10747617,0.095247
 64,-0.22285482,-0.08724051,-0.00168085,0.00169756,-0.00100347,-0.10091
 100,0.23775761,0.05165196,-0.08585573,-0.07560639,0.00535181,-0.010661
 68,0.00219001,-0.05849780,0.09705288,0.06890065,-0.11432625,-0.0561770
 6,0.00245896,-0.01896989,-0.02553419,-0.00215998,0.00921463,0.01156391
 ,0.00056082,0.51307397,-0.06032126,-0.17529052,-0.01362712,-0.01052778
 ,-0.00520011,0.00300785,-0.01379699,-0.01652887,-0.00041921,-0.0366627
 9,0.48649596,0.00125854,-0.01502750,-0.06333796,0.00219783,0.00806031,
 -0.00174159,-0.00681521,-0.00896766,0.00059021,-0.01321763,0.00679819,
 0.51200842,-0.01042638,-0.00764986,0.01535578,0.00195276,-0.00231705,0
 .00067630,0.00046346,0.00019056,-0.00052586,-0.06475419,-0.01884406,0.
 06983684,0.07245532,-0.01317287,-0.00871639,0.02357726,0.00263660,-0.0
 0151913,0.00043888,0.00050624,0.00056300,-0.00057197,-0.02017995,-0.06
 378448,0.06355233,0.02734690,0.06978140,0.00065503,0.00013403,0.006374
 78,-0.00135321,-0.00004897,0.00062770,0.00036519,0.00055070,0.00024202
 ,0.06917380,0.06132502,-0.24552214,-0.07621716,-0.06998980,0.26729829,
 -0.01731239,-0.00223297,-0.00607449,0.00175365,-0.00122030,-0.00275838
 ,0.00056481,-0.00033137,0.00026650,-0.20202324,0.03243028,-0.11317810,
 0.00772895,-0.00087398,0.00500942,0.22373127,-0.02626266,0.00302931,-0
 .01436285,0.00083278,-0.00077044,-0.00244147,0.00094417,0.00056216,0.0
 0030015,0.02996518,-0.04903995,0.01880063,0.00723429,-0.00183108,0.004
 64373,-0.02859430,0.05364534,0.00002806,-0.00087862,0.00150857,0.00130
 797,0.00040518,0.00007246,-0.00016204,-0.00028575,0.00014413,-0.113622
 54,0.01974193,-0.12298548,-0.02368386,0.00536294,-0.01810269,0.1253286
 0,-0.02259200,0.13215165,0.01032829,-0.01296097,-0.00761366,0.00072845
 ,-0.00190196,-0.00084086,-0.00141451,-0.00310654,0.00012449,-0.1200319
 2,0.10171860,0.05512161,-0.00586964,0.00647731,0.00256856,-0.01324809,
 0.01761198,0.01126772,0.12923569,0.01444553,-0.02200462,-0.01096334,0.
 00285562,0.00148975,-0.00049172,-0.00357659,-0.00284997,-0.00010015,0.
 10005155,-0.18196555,-0.07378838,-0.00526394,0.00706479,0.00307040,0.0
 0216145,-0.00345842,-0.00130077,-0.10882095,0.20143145,0.00036324,-0.0
 0172100,-0.00168712,0.00054334,0.00111114,0.00001571,-0.00001248,-0.00
 025693,0.00156384,0.05463655,-0.07435282,-0.08442938,0.01523369,-0.021
 35951,-0.01046639,-0.00931125,0.01396034,0.00743703,-0.06078491,0.0828
 3290,0.08751432,-0.02734126,-0.04861557,-0.00232066,-0.14189819,-0.105
 14101,0.00724991,0.00160020,0.00056488,-0.00224437,-0.00300415,0.00319
 389,0.00502407,-0.00178439,-0.00256873,0.00012600,-0.00117784,-0.00173
 236,-0.00063637,0.00020680,-0.00051846,-0.00034419,0.58884367,-0.01852
 999,-0.00313190,0.00306582,-0.05618618,-0.22860188,-0.03900777,0.00015
 345,0.00028376,0.00164257,-0.00108845,0.00370739,-0.00120582,-0.000439
 02,-0.00153790,0.00023450,-0.00139320,-0.00188244,-0.00038934,0.000454
 01,-0.00003216,-0.00005614,0.05066183,0.31046519,0.00643864,0.01321097
 ,0.00944339,0.02151853,-0.02247828,-0.04340952,-0.00236234,0.00150348,
 -0.00430857,0.00377694,-0.00265541,0.00709527,-0.00113403,-0.00061052,
 -0.00018961,0.00134066,0.00128574,-0.00044835,-0.00006158,0.00027184,-
 0.00026649,-0.17939430,0.06933536,0.09464512,0.00037621,-0.00492994,-0
 .00130685,-0.02423416,0.00931274,0.00882762,0.00064622,-0.00002062,-0.
 00059792,0.00024068,0.00024727,0.00099337,-0.00011688,-0.00012283,-0.0
 0014293,0.00014471,0.00022263,0.00014725,-0.00003445,-0.00008211,0.000
 01170,-0.42154195,0.04823712,0.15683647,0.44109058,-0.00130224,-0.0062
 1264,-0.00158409,-0.04291200,-0.00229537,0.01560285,0.00014142,0.00010
 828,0.00030924,-0.00136484,0.00066995,-0.00021657,-0.00005435,-0.00003
 492,-0.00000031,-0.00020559,-0.00040067,-0.00002531,0.00007492,-0.0000
 2458,-0.00005302,0.10060502,-0.05036054,-0.04900111,-0.05430870,0.0583
 1221,-0.00025619,-0.00036403,0.00072275,-0.00639144,-0.00203405,-0.004
 55274,-0.00055242,0.00036340,-0.00082421,0.00052654,-0.00075713,0.0025
 8621,-0.00031150,-0.00069718,-0.00007874,0.00021113,0.00055101,0.00002
 404,0.00005763,0.00000029,0.00005157,0.17210109,-0.03131229,-0.0660727
 6,-0.16400240,0.03464499,0.06788118,-0.00970362,0.02324734,0.01210567,
 -0.12254734,0.10066774,0.05874420,-0.00399316,-0.00151662,0.00391036,0
 .00058037,0.00256284,-0.00122131,0.00035100,-0.00004868,-0.00018470,-0
 .00016184,-0.00022172,0.00002521,0.00009938,-0.00125211,-0.00033569,0.
 00609712,-0.02186959,-0.00695899,0.00342905,-0.00067364,-0.00138243,0.
 12584906,-0.00168461,0.00235104,-0.00054032,0.09922889,-0.19906304,-0.
 08112532,-0.00158040,0.00126129,-0.00169611,-0.00057337,0.00093618,0.0
 0199446,-0.00020347,0.00001472,0.00008071,0.00025997,0.00014620,-0.000
 03826,0.00045359,0.00034930,-0.00010497,0.00355050,-0.02890951,-0.0108
 6208,0.00144445,0.00023829,-0.00039501,-0.10089556,0.22267554,0.004850
 75,-0.00894127,0.00192503,0.05832491,-0.08160580,-0.07849971,0.0038909
 2,-0.00171615,0.00710830,-0.00213344,0.00093870,-0.00426354,0.00076979
 ,0.00029756,-0.00018322,-0.00083410,-0.00014530,0.00019863,0.00016099,
 0.00046892,0.00026693,0.00043882,-0.00230688,0.00351152,-0.00076630,0.
 00032332,0.00026270,-0.06470234,0.09268690,0.06967337\\-0.00003206,-0.
 00001602,-0.00000537,-0.00001414,-0.00005074,-0.00000974,0.00001746,0.
 00001493,-0.00000269,0.00001724,0.00001072,0.00001815,-0.00000433,-0.0
 0000920,-0.00001208,0.00000120,-0.00000337,0.00000120,-0.00001015,-0.0
 0000096,0.00000112,0.00003457,0.00002736,0.00000030,-0.00001238,0.0000
 0579,0.00000393,0.00000259,0.00002149,0.00000516\\\@
 The archive entry for this job was punched.


 A MAN BEGINS CUTTING HIS WISDOM TEETH THE 1ST
 TIME HE BITES OFF MORE THAN HE CAN CHEW.
 Job cpu time:       0 days  0 hours  1 minutes 26.8 seconds.
 Elapsed time:       0 days  0 hours  0 minutes 21.7 seconds.
 File lengths (MBytes):  RWF=     32 Int=      0 D2E=      0 Chk=      7 Scr=      1
 Normal termination of Gaussian 16 at Sat Mar 21 20:48:15 2026.
