 Entering Gaussian System, Link 0=g16
 Input=tmp.com
 Output=tmp.log
 Initial command:
 /usr/local//g16/l1.exe "/home/monty/scratch/Gau-140738.inp" -scrdir="/home/monty/scratch/"
 Entering Link 1 = /usr/local//g16/l1.exe PID=    140740.
  
 Copyright (c) 1988-2019, Gaussian, Inc.  All Rights Reserved.
  
 This is part of the Gaussian(R) 16 program.  It is based on
 the Gaussian(R) 09 system (copyright 2009, Gaussian, Inc.),
 the Gaussian(R) 03 system (copyright 2003, Gaussian, Inc.),
 the Gaussian(R) 98 system (copyright 1998, Gaussian, Inc.),
 the Gaussian(R) 94 system (copyright 1995, Gaussian, Inc.),
 the Gaussian 92(TM) system (copyright 1992, Gaussian, Inc.),
 the Gaussian 90(TM) system (copyright 1990, Gaussian, Inc.),
 the Gaussian 88(TM) system (copyright 1988, Gaussian, Inc.),
 the Gaussian 86(TM) system (copyright 1986, Carnegie Mellon
 University), and the Gaussian 82(TM) system (copyright 1983,
 Carnegie Mellon University). Gaussian is a federally registered
 trademark of Gaussian, Inc.
  
 This software contains proprietary and confidential information,
 including trade secrets, belonging to Gaussian, Inc.
  
 This software is provided under written license and may be
 used, copied, transmitted, or stored only in accord with that
 written license.
  
 The following legend is applicable only to US Government
 contracts under FAR:
  
                    RESTRICTED RIGHTS LEGEND
  
 Use, reproduction and disclosure by the US Government is
 subject to restrictions as set forth in subparagraphs (a)
 and (c) of the Commercial Computer Software - Restricted
 Rights clause in FAR 52.227-19.
  
 Gaussian, Inc.
 340 Quinnipiac St., Bldg. 40, Wallingford CT 06492
  
  
 ---------------------------------------------------------------
 Warning -- This program may not be used in any manner that
 competes with the business of Gaussian, Inc. or will provide
 assistance to any competitor of Gaussian, Inc.  The licensee
 of this program is prohibited from giving any competitor of
 Gaussian, Inc. access to this program.  By using this program,
 the user acknowledges that Gaussian, Inc. is engaged in the
 business of creating and licensing software in the field of
 computational chemistry and represents and warrants to the
 licensee that it is not a competitor of Gaussian, Inc. and that
 it will not use this program in any manner prohibited above.
 ---------------------------------------------------------------
  

 Cite this work as:
 Gaussian 16, Revision C.01,
 M. J. Frisch, G. W. Trucks, H. B. Schlegel, G. E. Scuseria, 
 M. A. Robb, J. R. Cheeseman, G. Scalmani, V. Barone, 
 G. A. Petersson, H. Nakatsuji, X. Li, M. Caricato, A. V. Marenich, 
 J. Bloino, B. G. Janesko, R. Gomperts, B. Mennucci, H. P. Hratchian, 
 J. V. Ortiz, A. F. Izmaylov, J. L. Sonnenberg, D. Williams-Young, 
 F. Ding, F. Lipparini, F. Egidi, J. Goings, B. Peng, A. Petrone, 
 T. Henderson, D. Ranasinghe, V. G. Zakrzewski, J. Gao, N. Rega, 
 G. Zheng, W. Liang, M. Hada, M. Ehara, K. Toyota, R. Fukuda, 
 J. Hasegawa, M. Ishida, T. Nakajima, Y. Honda, O. Kitao, H. Nakai, 
 T. Vreven, K. Throssell, J. A. Montgomery, Jr., J. E. Peralta, 
 F. Ogliaro, M. J. Bearpark, J. J. Heyd, E. N. Brothers, K. N. Kudin, 
 V. N. Staroverov, T. A. Keith, R. Kobayashi, J. Normand, 
 K. Raghavachari, A. P. Rendell, J. C. Burant, S. S. Iyengar, 
 J. Tomasi, M. Cossi, J. M. Millam, M. Klene, C. Adamo, R. Cammi, 
 J. W. Ochterski, R. L. Martin, K. Morokuma, O. Farkas, 
 J. B. Foresman, and D. J. Fox, Gaussian, Inc., Wallingford CT, 2019.
 
 ******************************************
 Gaussian 16:  ES64L-G16RevC.01  3-Jul-2019
                21-Mar-2026 
 ******************************************
 %mem=512MW
 %nprocshared=4
 Will use up to    4 processors via shared memory.
 --------------------------------------------------------
 # opt freq b97d3/def2tzvp/auto EmpiricalDispersion=GD3BJ
 --------------------------------------------------------
 1/18=20,19=15,26=3,38=1/1,3;
 2/9=110,12=2,17=6,18=5,40=1/2;
 3/5=44,7=101,11=2,25=1,30=1,71=1,74=-59,82=28,124=41/1,2,3;
 4//1;
 5/5=2,38=5/2;
 6/7=2,8=2,9=2,10=2,28=1/1;
 7//1,2,3,16;
 1/18=20,19=15,26=3/3(2);
 2/9=110/2;
 99//99;
 2/9=110/2;
 3/5=44,7=101,11=2,25=1,30=1,71=1,74=-59,82=28,124=41/1,2,3;
 4/5=5,16=3,69=1/1;
 5/5=2,38=5/2;
 7//1,2,3,16;
 1/18=20,19=15,26=3/3(-5);
 2/9=110/2;
 6/7=2,8=2,9=2,10=2,19=2,28=1/1;
 99/9=1/99;
 --------------
 cis 1-propenol
 --------------
 Symbolic Z-matrix:
 Charge =  0 Multiplicity = 1
 C                    -0.48872  -0.36341   0. 
 C                     0.83719  -0.36341   0. 
 H                    -1.08231   0.56063   0. 
 H                     1.43081   0.56061   0.00003 
 C                    -1.3211   -1.65907  -0.00003 
 H                    -1.08812  -2.23269   0.87265 
 H                    -2.36263  -1.41389   0.00188 
 H                    -1.09089  -2.23087  -0.87465 
 O                     1.61007  -1.56655  -0.00002 
 H                     2.54465  -1.34708  -0.00004 
 

 GradGradGradGradGradGradGradGradGradGradGradGradGradGradGradGradGradGrad
 Berny optimization.
 Initialization pass.
                           ----------------------------
                           !    Initial Parameters    !
                           ! (Angstroms and Degrees)  !
 --------------------------                            --------------------------
 ! Name  Definition              Value          Derivative Info.                !
 --------------------------------------------------------------------------------
 ! R1    R(1,2)                  1.3259         estimate D2E/DX2                !
 ! R2    R(1,3)                  1.0983         estimate D2E/DX2                !
 ! R3    R(1,5)                  1.54           estimate D2E/DX2                !
 ! R4    R(2,4)                  1.0983         estimate D2E/DX2                !
 ! R5    R(2,9)                  1.43           estimate D2E/DX2                !
 ! R6    R(5,6)                  1.07           estimate D2E/DX2                !
 ! R7    R(5,7)                  1.07           estimate D2E/DX2                !
 ! R8    R(5,8)                  1.07           estimate D2E/DX2                !
 ! R9    R(9,10)                 0.96           estimate D2E/DX2                !
 ! A1    A(2,1,3)              122.7159         estimate D2E/DX2                !
 ! A2    A(2,1,5)              122.718          estimate D2E/DX2                !
 ! A3    A(3,1,5)              114.5661         estimate D2E/DX2                !
 ! A4    A(1,2,4)              122.718          estimate D2E/DX2                !
 ! A5    A(1,2,9)              122.7159         estimate D2E/DX2                !
 ! A6    A(4,2,9)              114.5661         estimate D2E/DX2                !
 ! A7    A(1,5,6)              109.4712         estimate D2E/DX2                !
 ! A8    A(1,5,7)              109.4712         estimate D2E/DX2                !
 ! A9    A(1,5,8)              109.4712         estimate D2E/DX2                !
 ! A10   A(6,5,7)              109.4713         estimate D2E/DX2                !
 ! A11   A(6,5,8)              109.4712         estimate D2E/DX2                !
 ! A12   A(7,5,8)              109.4712         estimate D2E/DX2                !
 ! A13   A(2,9,10)             109.5            estimate D2E/DX2                !
 ! D1    D(3,1,2,4)              0.0016         estimate D2E/DX2                !
 ! D2    D(3,1,2,9)           -179.9988         estimate D2E/DX2                !
 ! D3    D(5,1,2,4)           -179.9998         estimate D2E/DX2                !
 ! D4    D(5,1,2,9)             -0.0002         estimate D2E/DX2                !
 ! D5    D(2,1,5,6)             59.892          estimate D2E/DX2                !
 ! D6    D(2,1,5,7)            179.892          estimate D2E/DX2                !
 ! D7    D(2,1,5,8)            -60.108          estimate D2E/DX2                !
 ! D8    D(3,1,5,6)           -120.1093         estimate D2E/DX2                !
 ! D9    D(3,1,5,7)             -0.1093         estimate D2E/DX2                !
 ! D10   D(3,1,5,8)            119.8907         estimate D2E/DX2                !
 ! D11   D(1,2,9,10)           179.9985         estimate D2E/DX2                !
 ! D12   D(4,2,9,10)            -0.0019         estimate D2E/DX2                !
 --------------------------------------------------------------------------------
 Trust Radius=3.00D-01 FncErr=1.00D-07 GrdErr=1.00D-06 EigMax=2.50D+02 EigMin=1.00D-04
 Number of steps in this run=     44 maximum allowed number of steps=    100.
 GradGradGradGradGradGradGradGradGradGradGradGradGradGradGradGradGradGrad

                          Input orientation:                          
 ---------------------------------------------------------------------
 Center     Atomic      Atomic             Coordinates (Angstroms)
 Number     Number       Type             X           Y           Z
 ---------------------------------------------------------------------
      1          6           0       -0.488722   -0.363409    0.000000
      2          6           0        0.837194   -0.363409    0.000000
      3          1           0       -1.082307    0.560629    0.000000
      4          1           0        1.430810    0.560605    0.000026
      5          6           0       -1.321099   -1.659074   -0.000031
      6          1           0       -1.088118   -2.232695    0.872654
      7          1           0       -2.362627   -1.413889    0.001877
      8          1           0       -1.090890   -2.230873   -0.874645
      9          8           0        1.610073   -1.566554   -0.000025
     10          1           0        2.544647   -1.347077   -0.000044
 ---------------------------------------------------------------------
                    Distance matrix (angstroms):
                    1          2          3          4          5
     1  C    0.000000
     2  C    1.325916   0.000000
     3  H    1.098267   2.130336   0.000000
     4  H    2.130353   1.098263   2.513117   0.000000
     5  C    1.540000   2.517335   2.232511   3.535531   0.000000
     6  H    2.148263   2.821805   2.926469   3.861218   1.070000
     7  H    2.148263   3.367843   2.353284   4.276540   1.070000
     8  H    2.148263   2.823108   2.925331   3.862172   1.070000
     9  O    2.419193   1.430000   3.431300   2.134700   2.932631
    10  H    3.188876   1.970533   4.098065   2.209046   3.878316
                    6          7          8          9         10
     6  H    0.000000
     7  H    1.747303   0.000000
     8  H    1.747303   1.747303   0.000000
     9  O    2.912996   3.975632   2.915730   0.000000
    10  H    3.839649   4.907729   3.842285   0.960000   0.000000
 Stoichiometry    C3H6O
 Framework group  C1[X(C3H6O)]
 Deg. of freedom    24
 Full point group                 C1      NOp   1
 Largest Abelian subgroup         C1      NOp   1
 Largest concise Abelian subgroup C1      NOp   1
                         Standard orientation:                         
 ---------------------------------------------------------------------
 Center     Atomic      Atomic             Coordinates (Angstroms)
 Number     Number       Type             X           Y           Z
 ---------------------------------------------------------------------
      1          6           0        0.604264    0.714812   -0.000016
      2          6           0       -0.717739    0.613020   -0.000016
      3          1           0        1.125157    1.681693   -0.000016
      4          1           0       -1.380541    1.488734   -0.000042
      5          6           0        1.533654   -0.513127    0.000015
      6          1           0        1.345399   -1.102941   -0.872670
      7          1           0        2.553285   -0.188706   -0.001893
      8          1           0        1.348022   -1.100911    0.874629
      9          8           0       -1.395970   -0.645909    0.000009
     10          1           0       -2.344636   -0.498829    0.000028
 ---------------------------------------------------------------------
 Rotational constants (GHZ):          16.9970828           5.5881763           4.3160288
 Standard basis: def2TZVP (5D, 7F)
 There are   180 symmetry adapted cartesian basis functions of A   symmetry.
 There are   160 symmetry adapted basis functions of A   symmetry.
   160 basis functions,   252 primitive gaussians,   180 cartesian basis functions
    16 alpha electrons       16 beta electrons
       nuclear repulsion energy       116.7187847694 Hartrees.
 NAtoms=   10 NActive=   10 NUniq=   10 SFac= 1.00D+00 NAtFMM=   60 NAOKFM=F Big=F
 Integral buffers will be    131072 words long.
 Raffenetti 2 integral format.
 Two-electron integral symmetry is turned on.
 Nuclear repulsion after empirical dispersion term =      116.7015275916 Hartrees.
 Standard density basis: Auto (5D, 7F)
   734 Density fitting functions
 There are   734 symmetry adapted density basis functions of A   symmetry.
 One-electron integrals computed using PRISM.
   1 Symmetry operations used in ECPInt.
 ECPInt:  NShTT=    2346 NPrTT=    6892 LenC2=    2337 LenP2D=    5920.
 LDataN:  DoStor=T MaxTD1= 6 Len=  172
 NBasis=   160 RedAO= T EigKep=  1.51D-04  NBF=   160
 NBsUse=   160 1.00D-06 EigRej= -1.00D+00 NBFU=   160
 NBasis=      160 NBas6D=      180 NTT=       12880   NTT6D=    16290
 NDBShl=      110 NDBF=        734 NDBF6D=      928  NNucDB=        0
 IDenFi=        2 ISolve=        0 FullAP=F BlkAPC=T NucTyp=        0
 TolInv= 1.00D-06 TolIt=  1.00D-10 IR12=0.
 FoFCou: FMM=F IPFlag=           0 FMFlag=           0 FMFlg1=           0
         NFxFlg=           0 DoJE=F BraDBF=T KetDBF=T FulRan=T
         wScrn=  0.000000 ICntrl=       600 IOpCl=  3 I1Cent=           6 NGrid=           0
         NMat0=    1 NMatS0=    928 NMatT0=    0 NMatD0=    1 NMtDS0=    0 NMtDT0=    0
 Petite list used in FoFCou.
 DBF EigKep=  1.62D-06 EigRej=  7.20D-07
 NDBF=    734  NBFD=   734
 NRank=   725 NBFDU=   725
 S*AI*S=  7.46777853426    
 ExpMin= 9.52D-02 ExpMax= 2.70D+04 ExpMxC= 9.22D+02 IAcc=3 IRadAn=         5 AccDes= 0.00D+00
 Harris functional with IExCor= 3630 and IRadAn=       5 diagonalized for initial guess.
 HarFok:  IExCor= 3630 AccDes= 0.00D+00 IRadAn=         5 IDoV= 1 UseB2=F ITyADJ=14
 ICtDFT=  3500011 ScaDFX=  1.000000  1.000000  1.000000  1.000000
 FoFCou: FMM=F IPFlag=           0 FMFlag=      100000 FMFlg1=           0
         NFxFlg=           0 DoJE=T BraDBF=F KetDBF=T FulRan=T
         wScrn=  0.000000 ICntrl=       500 IOpCl=  0 I1Cent=   200000004 NGrid=           0
         NMat0=    1 NMatS0=      1 NMatT0=    0 NMatD0=    1 NMtDS0=    0 NMtDT0=    0
 Petite list used in FoFCou.
 Requested convergence on RMS density matrix=1.00D-08 within 128 cycles.
 Requested convergence on MAX density matrix=1.00D-06.
 Requested convergence on             energy=1.00D-06.
 No special actions if energy rises.
 FoFCou: FMM=F IPFlag=           0 FMFlag=      100000 FMFlg1=           0
         NFxFlg=           0 DoJE=T BraDBF=T KetDBF=F FulRan=T
         wScrn=  0.000000 ICntrl=       500 IOpCl=  0 I1Cent=           5 NGrid=           0
         NMat0=    1 NMatS0=      1 NMatT0=    0 NMatD0=    1 NMtDS0=    0 NMtDT0=    0
 Symmetry not used in FoFCou.
 Initial convergence to 1.0D-05 achieved.  Increase integral accuracy.
 SCF Done:  E(RB97D3) =  -193.084337920     A.U. after   14 cycles
            NFock= 14  Conv=0.12D-08     -V/T= 2.0048

 **********************************************************************

            Population analysis using the SCF Density.

 **********************************************************************

 Orbital symmetries:
       Occupied  (A) (A) (A) (A) (A) (A) (A) (A) (A) (A) (A) (A)
                 (A) (A) (A) (A)
       Virtual   (A) (A) (A) (A) (A) (A) (A) (A) (A) (A) (A) (A)
                 (A) (A) (A) (A) (A) (A) (A) (A) (A) (A) (A) (A)
                 (A) (A) (A) (A) (A) (A) (A) (A) (A) (A) (A) (A)
                 (A) (A) (A) (A) (A) (A) (A) (A) (A) (A) (A) (A)
                 (A) (A) (A) (A) (A) (A) (A) (A) (A) (A) (A) (A)
                 (A) (A) (A) (A) (A) (A) (A) (A) (A) (A) (A) (A)
                 (A) (A) (A) (A) (A) (A) (A) (A) (A) (A) (A) (A)
                 (A) (A) (A) (A) (A) (A) (A) (A) (A) (A) (A) (A)
                 (A) (A) (A) (A) (A) (A) (A) (A) (A) (A) (A) (A)
                 (A) (A) (A) (A) (A) (A) (A) (A) (A) (A) (A) (A)
                 (A) (A) (A) (A) (A) (A) (A) (A) (A) (A) (A) (A)
                 (A) (A) (A) (A) (A) (A) (A) (A) (A) (A) (A) (A)
 The electronic state is 1-A.
 Alpha  occ. eigenvalues --  -18.77473  -9.94804  -9.89121  -9.88139  -0.95039
 Alpha  occ. eigenvalues --   -0.70493  -0.61630  -0.50960  -0.46745  -0.40610
 Alpha  occ. eigenvalues --   -0.36640  -0.34577  -0.32464  -0.31662  -0.29504
 Alpha  occ. eigenvalues --   -0.19405
 Alpha virt. eigenvalues --   -0.00193   0.00490   0.05522   0.06117   0.08471
 Alpha virt. eigenvalues --    0.11831   0.12717   0.13448   0.17123   0.20826
 Alpha virt. eigenvalues --    0.21245   0.21292   0.23397   0.25353   0.27064
 Alpha virt. eigenvalues --    0.29779   0.30473   0.34169   0.35785   0.38200
 Alpha virt. eigenvalues --    0.40638   0.41882   0.43824   0.43972   0.44286
 Alpha virt. eigenvalues --    0.47443   0.47955   0.54216   0.54231   0.55980
 Alpha virt. eigenvalues --    0.57250   0.68172   0.72328   0.77945   0.79519
 Alpha virt. eigenvalues --    0.81038   0.83710   0.92160   0.93049   0.93720
 Alpha virt. eigenvalues --    0.99121   0.99796   1.08126   1.11220   1.12224
 Alpha virt. eigenvalues --    1.18577   1.24083   1.26001   1.33337   1.37193
 Alpha virt. eigenvalues --    1.43962   1.46309   1.46464   1.48476   1.54950
 Alpha virt. eigenvalues --    1.55771   1.60342   1.61198   1.63266   1.66500
 Alpha virt. eigenvalues --    1.74298   1.78223   1.79384   1.83011   1.89390
 Alpha virt. eigenvalues --    1.90326   1.96901   1.98403   2.00065   2.03307
 Alpha virt. eigenvalues --    2.05804   2.10576   2.16217   2.21974   2.26002
 Alpha virt. eigenvalues --    2.28364   2.31460   2.39041   2.47692   2.49368
 Alpha virt. eigenvalues --    2.49570   2.51586   2.51891   2.53538   2.58463
 Alpha virt. eigenvalues --    2.63812   2.68806   2.73843   2.74957   2.78889
 Alpha virt. eigenvalues --    2.82623   2.83491   2.86335   2.94423   2.97693
 Alpha virt. eigenvalues --    3.00797   3.01588   3.02433   3.09015   3.09531
 Alpha virt. eigenvalues --    3.13429   3.14620   3.16135   3.22751   3.28524
 Alpha virt. eigenvalues --    3.30638   3.38411   3.38697   3.44857   3.53568
 Alpha virt. eigenvalues --    3.54063   3.59016   3.70982   3.71571   3.78874
 Alpha virt. eigenvalues --    3.79554   3.95715   4.04829   4.12369   4.24345
 Alpha virt. eigenvalues --    4.30972   4.33665   4.40986   4.49775   4.56933
 Alpha virt. eigenvalues --    4.62634   4.74158   4.94424   5.10704   5.26442
 Alpha virt. eigenvalues --    5.31496   5.52683   5.65209   5.85388   6.17225
 Alpha virt. eigenvalues --    6.24389   6.52978   6.55133   6.82586   7.02814
 Alpha virt. eigenvalues --   21.91481  22.25045  22.57251  43.46413
          Condensed to atoms (all electrons):
               1          2          3          4          5          6
     1  C    5.231726   0.563268   0.411099  -0.099447   0.277525  -0.036512
     2  C    0.563268   4.736650  -0.040693   0.427209  -0.005036  -0.010887
     3  H    0.411099  -0.040693   0.571569  -0.011598  -0.048680   0.004615
     4  H   -0.099447   0.427209  -0.011598   0.645410   0.015423  -0.000198
     5  C    0.277525  -0.005036  -0.048680   0.015423   4.814650   0.405704
     6  H   -0.036512  -0.010887   0.004615  -0.000198   0.405704   0.575645
     7  H   -0.038316   0.009787  -0.009329  -0.000192   0.407191  -0.028278
     8  H   -0.036561  -0.010849   0.004602  -0.000200   0.405723  -0.028303
     9  O   -0.122342   0.369162   0.003625  -0.050055   0.012956   0.004122
    10  H    0.024803  -0.038426  -0.000241  -0.017022  -0.002202  -0.000128
               7          8          9         10
     1  C   -0.038316  -0.036561  -0.122342   0.024803
     2  C    0.009787  -0.010849   0.369162  -0.038426
     3  H   -0.009329   0.004602   0.003625  -0.000241
     4  H   -0.000192  -0.000200  -0.050055  -0.017022
     5  C    0.407191   0.405723   0.012956  -0.002202
     6  H   -0.028278  -0.028303   0.004122  -0.000128
     7  H    0.584885  -0.028303   0.000233  -0.000016
     8  H   -0.028303   0.575764   0.004107  -0.000127
     9  O    0.000233   0.004107   7.881237   0.283364
    10  H   -0.000016  -0.000127   0.283364   0.441310
 Mulliken charges:
               1
     1  C   -0.175243
     2  C   -0.000186
     3  H    0.115030
     4  H    0.090670
     5  C   -0.283254
     6  H    0.114220
     7  H    0.102337
     8  H    0.114148
     9  O   -0.386409
    10  H    0.308687
 Sum of Mulliken charges =  -0.00000
 Mulliken charges with hydrogens summed into heavy atoms:
               1
     1  C   -0.060213
     2  C    0.090483
     5  C    0.047452
     9  O   -0.077722
 Electronic spatial extent (au):  <R**2>=            314.5459
 Charge=             -0.0000 electrons
 Dipole moment (field-independent basis, Debye):
    X=             -1.1226    Y=              0.8741    Z=              0.0001  Tot=              1.4228
 Quadrupole moment (field-independent basis, Debye-Ang):
   XX=            -18.3829   YY=            -25.4464   ZZ=            -27.0670
   XY=             -0.4818   XZ=             -0.0000   YZ=              0.0001
 Traceless Quadrupole moment (field-independent basis, Debye-Ang):
   XX=              5.2492   YY=             -1.8143   ZZ=             -3.4349
   XY=             -0.4818   XZ=             -0.0000   YZ=              0.0001
 Octapole moment (field-independent basis, Debye-Ang**2):
  XXX=            -24.3924  YYY=             -0.0355  ZZZ=              0.0036  XYY=             -1.8642
  XXY=             -0.1970  XXZ=             -0.0017  XZZ=             -1.8165  YZZ=             -3.0221
  YYZ=             -0.0014  XYZ=             -0.0012
 Hexadecapole moment (field-independent basis, Debye-Ang**3):
 XXXX=           -211.6459 YYYY=           -108.4103 ZZZZ=            -35.7378 XXXY=             14.5093
 XXXZ=             -0.0124 YYYX=              4.3680 YYYZ=              0.0043 ZZZX=              0.0054
 ZZZY=             -0.0016 XXYY=            -60.1324 XXZZ=            -52.3113 YYZZ=            -25.5987
 XXYZ=             -0.0035 YYXZ=              0.0002 ZZXY=              0.3010
 N-N= 1.167015275916D+02 E-N=-6.845781682672D+02  KE= 1.921574862207D+02
   1 Symmetry operations used in ECPInt.
 ECPInt:  NShTT=    2346 NPrTT=    6892 LenC2=    2337 LenP2D=    5920.
 LDataN:  DoStor=T MaxTD1= 7 Len=  274
 Calling FoFJK, ICntrl=      2527 FMM=F ISym2X=0 I1Cent= 4 IOpClX= 0 NMat=1 NMatS=1 NMatT=0.
 ***** Axes restored to original set *****
 -------------------------------------------------------------------
 Center     Atomic                   Forces (Hartrees/Bohr)
 Number     Number              X              Y              Z
 -------------------------------------------------------------------
      1        6          -0.022208283   -0.016567121    0.000004096
      2        6           0.028348898   -0.006363955   -0.000000164
      3        1           0.012988847   -0.001976609   -0.000003330
      4        1          -0.002677686   -0.005278915   -0.000000817
      5        6           0.017207068    0.029337053    0.000019319
      6        1           0.002457062   -0.011910522    0.012336760
      7        1          -0.015397580    0.001559639    0.000023413
      8        1           0.002413013   -0.011887261   -0.012380271
      9        8          -0.026136750    0.017971085   -0.000000910
     10        1           0.003005413    0.005116607    0.000001903
 -------------------------------------------------------------------
 Cartesian Forces:  Max     0.029337053 RMS     0.012724716

 GradGradGradGradGradGradGradGradGradGradGradGradGradGradGradGradGradGrad
 Berny optimization.
 FormGI is forming the generalized inverse of G from B-inverse, IUseBI=4.
 Internal  Forces:  Max     0.031927312 RMS     0.008569867
 Search for a local minimum.
 Step number   1 out of a maximum of   44
 All quantities printed in internal units (Hartrees-Bohrs-Radians)
 Mixed Optimization -- RFO/linear search
 Second derivative matrix not updated -- first step.
 ITU=  0
     Eigenvalues ---    0.00237   0.01295   0.01477   0.02537   0.03069
     Eigenvalues ---    0.07243   0.07243   0.16000   0.16000   0.16000
     Eigenvalues ---    0.16000   0.16000   0.16000   0.22000   0.22000
     Eigenvalues ---    0.28519   0.33875   0.33875   0.37230   0.37230
     Eigenvalues ---    0.37230   0.40989   0.55473   0.60481
 RFO step:  Lambda=-7.69934249D-03 EMin= 2.36824186D-03
 Linear search not attempted -- first point.
 Iteration  1 RMS(Cart)=  0.03614651 RMS(Int)=  0.00068014
 Iteration  2 RMS(Cart)=  0.00072378 RMS(Int)=  0.00006170
 Iteration  3 RMS(Cart)=  0.00000026 RMS(Int)=  0.00006170
 Variable       Old X    -DE/DX   Delta X   Delta X   Delta X     New X
                                 (Linear)    (Quad)   (Total)
    R1        2.50562   0.00254   0.00000   0.00415   0.00415   2.50976
    R2        2.07542  -0.00868   0.00000  -0.02506  -0.02506   2.05036
    R3        2.91018  -0.00958   0.00000  -0.03272  -0.03272   2.87746
    R4        2.07542  -0.00589   0.00000  -0.01700  -0.01700   2.05842
    R5        2.70231  -0.03193   0.00000  -0.07646  -0.07646   2.62585
    R6        2.02201   0.01698   0.00000   0.04469   0.04469   2.06670
    R7        2.02201   0.01535   0.00000   0.04038   0.04038   2.06239
    R8        2.02201   0.01699   0.00000   0.04471   0.04471   2.06672
    R9        1.81414   0.00410   0.00000   0.00728   0.00728   1.82142
    A1        2.14180  -0.01227   0.00000  -0.06997  -0.06997   2.07183
    A2        2.14183   0.00408   0.00000   0.01792   0.01792   2.15975
    A3        1.99956   0.00819   0.00000   0.05205   0.05205   2.05161
    A4        2.14183   0.00452   0.00000   0.02085   0.02085   2.16268
    A5        2.14180  -0.00780   0.00000  -0.03426  -0.03426   2.10753
    A6        1.99956   0.00328   0.00000   0.01342   0.01342   2.01297
    A7        1.91063   0.00337   0.00000   0.01924   0.01910   1.92973
    A8        1.91063   0.00180   0.00000   0.01244   0.01227   1.92291
    A9        1.91063   0.00337   0.00000   0.01923   0.01909   1.92972
   A10        1.91063  -0.00226   0.00000  -0.01178  -0.01193   1.89870
   A11        1.91063  -0.00401   0.00000  -0.02730  -0.02741   1.88322
   A12        1.91063  -0.00226   0.00000  -0.01183  -0.01199   1.89864
   A13        1.91114  -0.00779   0.00000  -0.04645  -0.04645   1.86468
    D1        0.00003   0.00000   0.00000   0.00002   0.00002   0.00005
    D2       -3.14157  -0.00000   0.00000  -0.00000  -0.00000  -3.14157
    D3       -3.14159  -0.00000   0.00000  -0.00002  -0.00002   3.14158
    D4       -0.00000  -0.00000   0.00000  -0.00004  -0.00004  -0.00004
    D5        1.04531  -0.00040   0.00000  -0.00509  -0.00511   1.04020
    D6        3.13971   0.00000   0.00000  -0.00012  -0.00012   3.13959
    D7       -1.04908   0.00039   0.00000   0.00478   0.00480  -1.04429
    D8       -2.09630  -0.00040   0.00000  -0.00513  -0.00515  -2.10145
    D9       -0.00191  -0.00000   0.00000  -0.00016  -0.00016  -0.00207
   D10        2.09249   0.00039   0.00000   0.00474   0.00476   2.09725
   D11        3.14157   0.00000   0.00000   0.00009   0.00009  -3.14153
   D12       -0.00003   0.00000   0.00000   0.00007   0.00007   0.00004
         Item               Value     Threshold  Converged?
 Maximum Force            0.031927     0.000450     NO 
 RMS     Force            0.008570     0.000300     NO 
 Maximum Displacement     0.125763     0.001800     NO 
 RMS     Displacement     0.036257     0.001200     NO 
 Predicted change in Energy=-3.955271D-03
 GradGradGradGradGradGradGradGradGradGradGradGradGradGradGradGradGradGrad

                          Input orientation:                          
 ---------------------------------------------------------------------
 Center     Atomic      Atomic             Coordinates (Angstroms)
 Number     Number       Type             X           Y           Z
 ---------------------------------------------------------------------
      1          6           0       -0.483081   -0.377970   -0.000011
      2          6           0        0.844932   -0.361842   -0.000016
      3          1           0       -1.015756    0.567276   -0.000057
      4          1           0        1.441640    0.549446   -0.000019
      5          6           0       -1.313487   -1.654292   -0.000023
      6          1           0       -1.088665   -2.258904    0.883134
      7          1           0       -2.377417   -1.411117    0.002036
      8          1           0       -1.091690   -2.256915   -0.885318
      9          8           0        1.569899   -1.547274    0.000019
     10          1           0        2.502586   -1.304151    0.000068
 ---------------------------------------------------------------------
                    Distance matrix (angstroms):
                    1          2          3          4          5
     1  C    0.000000
     2  C    1.328110   0.000000
     3  H    1.085003   2.079764   0.000000
     4  H    2.136503   1.089269   2.457460   0.000000
     5  C    1.522687   2.515790   2.241431   3.528056   0.000000
     6  H    2.164392   2.849139   2.961864   3.881910   1.093649
     7  H    2.157755   3.388881   2.401700   4.292901   1.091369
     8  H    2.164397   2.850538   2.960661   3.882934   1.093662
     9  O    2.362625   1.389541   3.340200   2.100638   2.885371
    10  H    3.126023   1.906768   3.985094   2.135750   3.832103
                    6          7          8          9         10
     6  H    0.000000
     7  H    1.776502   0.000000
     8  H    1.768456   1.776476   0.000000
     9  O    2.890376   3.949665   2.893350   0.000000
    10  H    3.819482   4.881176   3.822367   0.963854   0.000000
 Stoichiometry    C3H6O
 Framework group  C1[X(C3H6O)]
 Deg. of freedom    24
 Full point group                 C1      NOp   1
 Largest Abelian subgroup         C1      NOp   1
 Largest concise Abelian subgroup C1      NOp   1
                         Standard orientation:                         
 ---------------------------------------------------------------------
 Center     Atomic      Atomic             Coordinates (Angstroms)
 Number     Number       Type             X           Y           Z
 ---------------------------------------------------------------------
      1          6           0        0.578640    0.709735    0.000001
      2          6           0       -0.744418    0.594011    0.000006
      3          1           0        1.014895    1.703171    0.000047
      4          1           0       -1.428604    1.441594    0.000009
      5          6           0        1.531591   -0.477892    0.000014
      6          1           0        1.367871   -1.101828   -0.883144
      7          1           0        2.566142   -0.130348   -0.002046
      8          1           0        1.370684   -1.099549    0.885309
      9          8           0       -1.348184   -0.657505   -0.000028
     10          1           0       -2.300392   -0.508127   -0.000078
 ---------------------------------------------------------------------
 Rotational constants (GHZ):          17.3417438           5.7234482           4.4218937
 Standard basis: def2TZVP (5D, 7F)
 There are   180 symmetry adapted cartesian basis functions of A   symmetry.
 There are   160 symmetry adapted basis functions of A   symmetry.
   160 basis functions,   252 primitive gaussians,   180 cartesian basis functions
    16 alpha electrons       16 beta electrons
       nuclear repulsion energy       117.7516045736 Hartrees.
 NAtoms=   10 NActive=   10 NUniq=   10 SFac= 1.00D+00 NAtFMM=   60 NAOKFM=F Big=F
 Integral buffers will be    131072 words long.
 Raffenetti 2 integral format.
 Two-electron integral symmetry is turned on.
 Nuclear repulsion after empirical dispersion term =      117.7342736949 Hartrees.
 Standard density basis: Auto (5D, 7F)
   734 Density fitting functions
 There are   734 symmetry adapted density basis functions of A   symmetry.
 One-electron integrals computed using PRISM.
   1 Symmetry operations used in ECPInt.
 ECPInt:  NShTT=    2346 NPrTT=    6892 LenC2=    2338 LenP2D=    5930.
 LDataN:  DoStor=T MaxTD1= 6 Len=  172
 NBasis=   160 RedAO= T EigKep=  1.48D-04  NBF=   160
 NBsUse=   160 1.00D-06 EigRej= -1.00D+00 NBFU=   160
 NBasis=      160 NBas6D=      180 NTT=       12880   NTT6D=    16290
 NDBShl=      110 NDBF=        734 NDBF6D=      928  NNucDB=        0
 IDenFi=        2 ISolve=        0 FullAP=F BlkAPC=T NucTyp=        0
 TolInv= 1.00D-06 TolIt=  1.00D-10 IR12=0.
 FoFCou: FMM=F IPFlag=           0 FMFlag=           0 FMFlg1=           0
         NFxFlg=           0 DoJE=F BraDBF=T KetDBF=T FulRan=T
         wScrn=  0.000000 ICntrl=       600 IOpCl=  3 I1Cent=           6 NGrid=           0
         NMat0=    1 NMatS0=    928 NMatT0=    0 NMatD0=    1 NMtDS0=    0 NMtDT0=    0
 Petite list used in FoFCou.
 DBF EigKep=  1.63D-06 EigRej=  5.98D-07
 NDBF=    734  NBFD=   734
 NRank=   725 NBFDU=   725
 S*AI*S=  7.46585927933    
 Initial guess from the checkpoint file:  "/home/monty/scratch/Gau-140740.chk"
 B after Tr=     0.000000   -0.000000    0.000000
         Rot=    0.999940   -0.000008    0.000003   -0.010984 Ang=  -1.26 deg.
 Recovered     1 saved fitting vectors from chk file.
 ExpMin= 9.52D-02 ExpMax= 2.70D+04 ExpMxC= 9.22D+02 IAcc=3 IRadAn=         5 AccDes= 0.00D+00
 Harris functional with IExCor= 3630 and IRadAn=       5 diagonalized for initial guess.
 HarFok:  IExCor= 3630 AccDes= 0.00D+00 IRadAn=         5 IDoV= 1 UseB2=F ITyADJ=14
 ICtDFT=  3500011 ScaDFX=  1.000000  1.000000  1.000000  1.000000
 FoFCou: FMM=F IPFlag=           0 FMFlag=      100000 FMFlg1=           0
         NFxFlg=           0 DoJE=T BraDBF=F KetDBF=T FulRan=T
         wScrn=  0.000000 ICntrl=       500 IOpCl=  0 I1Cent=   200000004 NGrid=           0
         NMat0=    1 NMatS0=      1 NMatT0=    0 NMatD0=    1 NMtDS0=    0 NMtDT0=    0
 Petite list used in FoFCou.
 Requested convergence on RMS density matrix=1.00D-08 within 128 cycles.
 Requested convergence on MAX density matrix=1.00D-06.
 Requested convergence on             energy=1.00D-06.
 No special actions if energy rises.
 FoFCou: FMM=F IPFlag=           0 FMFlag=      100000 FMFlg1=           0
         NFxFlg=           0 DoJE=T BraDBF=T KetDBF=F FulRan=T
         wScrn=  0.000000 ICntrl=       500 IOpCl=  0 I1Cent=           5 NGrid=           0
         NMat0=    1 NMatS0=      1 NMatT0=    0 NMatD0=    1 NMtDS0=    0 NMtDT0=    0
 Symmetry not used in FoFCou.
 Initial convergence to 1.0D-05 achieved.  Increase integral accuracy.
 SCF Done:  E(RB97D3) =  -193.088667263     A.U. after   11 cycles
            NFock= 11  Conv=0.87D-08     -V/T= 2.0047
   1 Symmetry operations used in ECPInt.
 ECPInt:  NShTT=    2346 NPrTT=    6892 LenC2=    2338 LenP2D=    5930.
 LDataN:  DoStor=T MaxTD1= 7 Len=  274
 Calling FoFJK, ICntrl=      2527 FMM=F ISym2X=0 I1Cent= 4 IOpClX= 0 NMat=1 NMatS=1 NMatT=0.
 ***** Axes restored to original set *****
 -------------------------------------------------------------------
 Center     Atomic                   Forces (Hartrees/Bohr)
 Number     Number              X              Y              Z
 -------------------------------------------------------------------
      1        6          -0.012601718   -0.006660903    0.000002189
      2        6           0.006950589   -0.005918763    0.000003313
      3        1           0.002208323    0.001966875   -0.000003474
      4        1          -0.001508034    0.000619591   -0.000000449
      5        6           0.006391469    0.010923833    0.000008176
      6        1          -0.000379558   -0.002318533    0.000737192
      7        1          -0.001354474   -0.001005639    0.000000630
      8        1          -0.000386398   -0.002318464   -0.000746183
      9        8          -0.001144123    0.007375251   -0.000003196
     10        1           0.001823925   -0.002663249    0.000001803
 -------------------------------------------------------------------
 Cartesian Forces:  Max     0.012601718 RMS     0.004239541

 GradGradGradGradGradGradGradGradGradGradGradGradGradGradGradGradGradGrad
 Berny optimization.
 Using GEDIIS/GDIIS optimizer.
 FormGI is forming the generalized inverse of G from B-inverse, IUseBI=4.
 Internal  Forces:  Max     0.006755306 RMS     0.002339099
 Search for a local minimum.
 Step number   2 out of a maximum of   44
 All quantities printed in internal units (Hartrees-Bohrs-Radians)
 Mixed Optimization -- RFO/linear search
 Update second derivatives using D2CorX and points    1    2
 DE= -4.33D-03 DEPred=-3.96D-03 R= 1.09D+00
 TightC=F SS=  1.41D+00  RLast= 1.66D-01 DXNew= 5.0454D-01 4.9676D-01
 Trust test= 1.09D+00 RLast= 1.66D-01 DXMaxT set to 4.97D-01
 ITU=  1  0
 Use linear search instead of GDIIS.
     Eigenvalues ---    0.00237   0.01295   0.01384   0.02543   0.03069
     Eigenvalues ---    0.07035   0.07047   0.13476   0.16000   0.16000
     Eigenvalues ---    0.16000   0.16000   0.17367   0.21882   0.23242
     Eigenvalues ---    0.26633   0.33857   0.34183   0.37162   0.37230
     Eigenvalues ---    0.37695   0.40503   0.55406   0.61230
 RFO step:  Lambda=-8.27478785D-04 EMin= 2.36824176D-03
 Quartic linear search produced a step of  0.12179.
 Iteration  1 RMS(Cart)=  0.01402240 RMS(Int)=  0.00017556
 Iteration  2 RMS(Cart)=  0.00019026 RMS(Int)=  0.00003811
 Iteration  3 RMS(Cart)=  0.00000000 RMS(Int)=  0.00003811
 Variable       Old X    -DE/DX   Delta X   Delta X   Delta X     New X
                                 (Linear)    (Quad)   (Total)
    R1        2.50976   0.00611   0.00050   0.01125   0.01175   2.52152
    R2        2.05036   0.00063  -0.00305   0.00259  -0.00046   2.04990
    R3        2.87746  -0.00676  -0.00398  -0.02578  -0.02976   2.84770
    R4        2.05842  -0.00031  -0.00207  -0.00067  -0.00274   2.05568
    R5        2.62585  -0.00367  -0.00931  -0.00853  -0.01785   2.60801
    R6        2.06670   0.00180   0.00544   0.00452   0.00996   2.07666
    R7        2.06239   0.00110   0.00492   0.00249   0.00741   2.06980
    R8        2.06672   0.00180   0.00545   0.00453   0.00998   2.07670
    R9        1.82142   0.00109   0.00089   0.00208   0.00296   1.82438
    A1        2.07183  -0.00334  -0.00852  -0.02064  -0.02916   2.04266
    A2        2.15975   0.00075   0.00218   0.00339   0.00557   2.16532
    A3        2.05161   0.00259   0.00634   0.01725   0.02359   2.07520
    A4        2.16268  -0.00301   0.00254  -0.01895  -0.01641   2.14627
    A5        2.10753   0.00273  -0.00417   0.01470   0.01053   2.11806
    A6        2.01297   0.00028   0.00163   0.00425   0.00588   2.01886
    A7        1.92973   0.00164   0.00233   0.01042   0.01266   1.94239
    A8        1.92291   0.00124   0.00149   0.00925   0.01064   1.93354
    A9        1.92972   0.00164   0.00232   0.01044   0.01268   1.94240
   A10        1.89870  -0.00135  -0.00145  -0.00815  -0.00970   1.88900
   A11        1.88322  -0.00197  -0.00334  -0.01482  -0.01822   1.86500
   A12        1.89864  -0.00135  -0.00146  -0.00818  -0.00974   1.88890
   A13        1.86468   0.00553  -0.00566   0.03987   0.03421   1.89889
    D1        0.00005   0.00000   0.00000   0.00002   0.00002   0.00007
    D2       -3.14157   0.00000  -0.00000   0.00005   0.00005  -3.14153
    D3        3.14158   0.00000  -0.00000   0.00001   0.00001   3.14159
    D4       -0.00004   0.00000  -0.00000   0.00004   0.00003  -0.00001
    D5        1.04020  -0.00018  -0.00062  -0.00291  -0.00355   1.03666
    D6        3.13959  -0.00000  -0.00001  -0.00036  -0.00037   3.13922
    D7       -1.04429   0.00017   0.00058   0.00216   0.00276  -1.04152
    D8       -2.10145  -0.00018  -0.00063  -0.00292  -0.00356  -2.10502
    D9       -0.00207  -0.00000  -0.00002  -0.00037  -0.00039  -0.00245
   D10        2.09725   0.00017   0.00058   0.00215   0.00275   2.09999
   D11       -3.14153   0.00000   0.00001   0.00009   0.00011  -3.14142
   D12        0.00004   0.00000   0.00001   0.00012   0.00013   0.00017
         Item               Value     Threshold  Converged?
 Maximum Force            0.006755     0.000450     NO 
 RMS     Force            0.002339     0.000300     NO 
 Maximum Displacement     0.036946     0.001800     NO 
 RMS     Displacement     0.013985     0.001200     NO 
 Predicted change in Energy=-4.747453D-04
 GradGradGradGradGradGradGradGradGradGradGradGradGradGradGradGradGradGrad

                          Input orientation:                          
 ---------------------------------------------------------------------
 Center     Atomic      Atomic             Coordinates (Angstroms)
 Number     Number       Type             X           Y           Z
 ---------------------------------------------------------------------
      1          6           0       -0.488887   -0.385954   -0.000074
      2          6           0        0.845298   -0.366212   -0.000017
      3          1           0       -0.996205    0.572864   -0.000230
      4          1           0        1.423758    0.555056   -0.000055
      5          6           0       -1.314387   -1.646673   -0.000031
      6          1           0       -1.096902   -2.265999    0.881310
      7          1           0       -2.383991   -1.410874    0.002342
      8          1           0       -1.100422   -2.263777   -0.883815
      9          8           0        1.580791   -1.533997    0.000100
     10          1           0        2.519909   -1.310177    0.000281
 ---------------------------------------------------------------------
                    Distance matrix (angstroms):
                    1          2          3          4          5
     1  C    0.000000
     2  C    1.334330   0.000000
     3  H    1.084759   2.067122   0.000000
     4  H    2.131598   1.087820   2.420028   0.000000
     5  C    1.506938   2.510740   2.242227   3.513552   0.000000
     6  H    2.163583   2.856233   2.974289   3.884441   1.098921
     7  H    2.154504   3.394058   2.420986   4.285305   1.095291
     8  H    2.163606   2.857915   2.972897   3.885658   1.098941
     9  O    2.366763   1.380098   3.328628   2.094947   2.897369
    10  H    3.147546   1.922341   3.988596   2.163479   3.849033
                    6          7          8          9         10
     6  H    0.000000
     7  H    1.777758   0.000000
     8  H    1.765130   1.777714   0.000000
     9  O    2.912455   3.966694   2.915954   0.000000
    10  H    3.843323   4.904935   3.846788   0.965422   0.000000
 Stoichiometry    C3H6O
 Framework group  C1[X(C3H6O)]
 Deg. of freedom    24
 Full point group                 C1      NOp   1
 Largest Abelian subgroup         C1      NOp   1
 Largest concise Abelian subgroup C1      NOp   1
                         Standard orientation:                         
 ---------------------------------------------------------------------
 Center     Atomic      Atomic             Coordinates (Angstroms)
 Number     Number       Type             X           Y           Z
 ---------------------------------------------------------------------
      1          6           0        0.586788    0.700369    0.000071
      2          6           0       -0.742767    0.587588    0.000014
      3          1           0        0.996433    1.704806    0.000227
      4          1           0       -1.409812    1.446891    0.000052
      5          6           0        1.533345   -0.472189    0.000028
      6          1           0        1.378406   -1.110044   -0.881313
      7          1           0        2.574264   -0.131390   -0.002345
      8          1           0        1.381688   -1.107483    0.883812
      9          8           0       -1.358719   -0.647432   -0.000103
     10          1           0       -2.315416   -0.517930   -0.000284
 ---------------------------------------------------------------------
 Rotational constants (GHZ):          17.6221248           5.6797797           4.4131264
 Standard basis: def2TZVP (5D, 7F)
 There are   180 symmetry adapted cartesian basis functions of A   symmetry.
 There are   160 symmetry adapted basis functions of A   symmetry.
   160 basis functions,   252 primitive gaussians,   180 cartesian basis functions
    16 alpha electrons       16 beta electrons
       nuclear repulsion energy       117.8253351300 Hartrees.
 NAtoms=   10 NActive=   10 NUniq=   10 SFac= 1.00D+00 NAtFMM=   60 NAOKFM=F Big=F
 Integral buffers will be    131072 words long.
 Raffenetti 2 integral format.
 Two-electron integral symmetry is turned on.
 Nuclear repulsion after empirical dispersion term =      117.8080390726 Hartrees.
 Standard density basis: Auto (5D, 7F)
   734 Density fitting functions
 There are   734 symmetry adapted density basis functions of A   symmetry.
 One-electron integrals computed using PRISM.
   1 Symmetry operations used in ECPInt.
 ECPInt:  NShTT=    2346 NPrTT=    6892 LenC2=    2338 LenP2D=    5929.
 LDataN:  DoStor=T MaxTD1= 6 Len=  172
 NBasis=   160 RedAO= T EigKep=  1.54D-04  NBF=   160
 NBsUse=   160 1.00D-06 EigRej= -1.00D+00 NBFU=   160
 NBasis=      160 NBas6D=      180 NTT=       12880   NTT6D=    16290
 NDBShl=      110 NDBF=        734 NDBF6D=      928  NNucDB=        0
 IDenFi=        2 ISolve=        0 FullAP=F BlkAPC=T NucTyp=        0
 TolInv= 1.00D-06 TolIt=  1.00D-10 IR12=0.
 FoFCou: FMM=F IPFlag=           0 FMFlag=           0 FMFlg1=           0
         NFxFlg=           0 DoJE=F BraDBF=T KetDBF=T FulRan=T
         wScrn=  0.000000 ICntrl=       600 IOpCl=  3 I1Cent=           6 NGrid=           0
         NMat0=    1 NMatS0=    928 NMatT0=    0 NMatD0=    1 NMtDS0=    0 NMtDT0=    0
 Petite list used in FoFCou.
 DBF EigKep=  1.71D-06 EigRej=  5.57D-07
 NDBF=    734  NBFD=   734
 NRank=   725 NBFDU=   725
 S*AI*S=  7.47116566256    
 Initial guess from the checkpoint file:  "/home/monty/scratch/Gau-140740.chk"
 B after Tr=    -0.000000    0.000000    0.000000
         Rot=    1.000000   -0.000015    0.000009    0.000978 Ang=  -0.11 deg.
 Recovered     1 saved fitting vectors from chk file.
 ExpMin= 9.52D-02 ExpMax= 2.70D+04 ExpMxC= 9.22D+02 IAcc=3 IRadAn=         5 AccDes= 0.00D+00
 Harris functional with IExCor= 3630 and IRadAn=       5 diagonalized for initial guess.
 HarFok:  IExCor= 3630 AccDes= 0.00D+00 IRadAn=         5 IDoV= 1 UseB2=F ITyADJ=14
 ICtDFT=  3500011 ScaDFX=  1.000000  1.000000  1.000000  1.000000
 FoFCou: FMM=F IPFlag=           0 FMFlag=      100000 FMFlg1=           0
         NFxFlg=           0 DoJE=T BraDBF=F KetDBF=T FulRan=T
         wScrn=  0.000000 ICntrl=       500 IOpCl=  0 I1Cent=   200000004 NGrid=           0
         NMat0=    1 NMatS0=      1 NMatT0=    0 NMatD0=    1 NMtDS0=    0 NMtDT0=    0
 Petite list used in FoFCou.
 Requested convergence on RMS density matrix=1.00D-08 within 128 cycles.
 Requested convergence on MAX density matrix=1.00D-06.
 Requested convergence on             energy=1.00D-06.
 No special actions if energy rises.
 FoFCou: FMM=F IPFlag=           0 FMFlag=      100000 FMFlg1=           0
         NFxFlg=           0 DoJE=T BraDBF=T KetDBF=F FulRan=T
         wScrn=  0.000000 ICntrl=       500 IOpCl=  0 I1Cent=           5 NGrid=           0
         NMat0=    1 NMatS0=      1 NMatT0=    0 NMatD0=    1 NMtDS0=    0 NMtDT0=    0
 Symmetry not used in FoFCou.
 Initial convergence to 1.0D-05 achieved.  Increase integral accuracy.
 SCF Done:  E(RB97D3) =  -193.089202961     A.U. after   12 cycles
            NFock= 12  Conv=0.87D-09     -V/T= 2.0047
   1 Symmetry operations used in ECPInt.
 ECPInt:  NShTT=    2346 NPrTT=    6892 LenC2=    2338 LenP2D=    5929.
 LDataN:  DoStor=T MaxTD1= 7 Len=  274
 Calling FoFJK, ICntrl=      2527 FMM=F ISym2X=0 I1Cent= 4 IOpClX= 0 NMat=1 NMatS=1 NMatT=0.
 ***** Axes restored to original set *****
 -------------------------------------------------------------------
 Center     Atomic                   Forces (Hartrees/Bohr)
 Number     Number              X              Y              Z
 -------------------------------------------------------------------
      1        6          -0.001250754   -0.001744711    0.000002793
      2        6           0.001431771   -0.001980431    0.000002326
      3        1           0.000068768    0.001120039   -0.000003561
      4        1          -0.000369608    0.001278629   -0.000000547
      5        6           0.000385968    0.001413162    0.000003669
      6        1          -0.000499895    0.000164005   -0.000878873
      7        1           0.000916714   -0.000882412   -0.000002335
      8        1          -0.000501250    0.000160611    0.000876850
      9        8           0.000746739    0.000810931   -0.000002027
     10        1          -0.000928454   -0.000339823    0.000001703
 -------------------------------------------------------------------
 Cartesian Forces:  Max     0.001980431 RMS     0.000849787

 GradGradGradGradGradGradGradGradGradGradGradGradGradGradGradGradGradGrad
 Berny optimization.
 Using GEDIIS/GDIIS optimizer.
 FormGI is forming the generalized inverse of G from B-inverse, IUseBI=4.
 Internal  Forces:  Max     0.001375985 RMS     0.000624840
 Search for a local minimum.
 Step number   3 out of a maximum of   44
 All quantities printed in internal units (Hartrees-Bohrs-Radians)
 Mixed Optimization -- En-DIIS/RFO-DIIS
 Update second derivatives using D2CorX and points    1    2    3
 DE= -5.36D-04 DEPred=-4.75D-04 R= 1.13D+00
 TightC=F SS=  1.41D+00  RLast= 7.50D-02 DXNew= 8.3545D-01 2.2513D-01
 Trust test= 1.13D+00 RLast= 7.50D-02 DXMaxT set to 4.97D-01
 ITU=  1  1  0
 Use linear search instead of GDIIS.
     Eigenvalues ---    0.00237   0.01295   0.01346   0.02533   0.03069
     Eigenvalues ---    0.06887   0.06900   0.11125   0.16000   0.16000
     Eigenvalues ---    0.16000   0.16325   0.17543   0.21683   0.23089
     Eigenvalues ---    0.27010   0.33908   0.34125   0.37200   0.37230
     Eigenvalues ---    0.39214   0.41562   0.55918   0.60599
 RFO step:  Lambda=-4.63241306D-05 EMin= 2.36822483D-03
 Quartic linear search produced a step of  0.16220.
 Iteration  1 RMS(Cart)=  0.00573403 RMS(Int)=  0.00002668
 Iteration  2 RMS(Cart)=  0.00002739 RMS(Int)=  0.00000984
 Iteration  3 RMS(Cart)=  0.00000000 RMS(Int)=  0.00000984
 Variable       Old X    -DE/DX   Delta X   Delta X   Delta X     New X
                                 (Linear)    (Quad)   (Total)
    R1        2.52152   0.00088   0.00191   0.00038   0.00228   2.52380
    R2        2.04990   0.00096  -0.00007   0.00270   0.00263   2.05253
    R3        2.84770  -0.00088  -0.00483  -0.00078  -0.00561   2.84209
    R4        2.05568   0.00089  -0.00044   0.00292   0.00248   2.05816
    R5        2.60801  -0.00050  -0.00289  -0.00109  -0.00398   2.60403
    R6        2.07666  -0.00090   0.00162  -0.00288  -0.00126   2.07540
    R7        2.06980  -0.00109   0.00120  -0.00326  -0.00206   2.06774
    R8        2.07670  -0.00089   0.00162  -0.00287  -0.00125   2.07545
    R9        1.82438  -0.00098   0.00048  -0.00220  -0.00172   1.82266
    A1        2.04266  -0.00089  -0.00473  -0.00394  -0.00867   2.03399
    A2        2.16532   0.00058   0.00090   0.00279   0.00370   2.16902
    A3        2.07520   0.00031   0.00383   0.00115   0.00497   2.08017
    A4        2.14627  -0.00138  -0.00266  -0.00672  -0.00938   2.13689
    A5        2.11806   0.00071   0.00171   0.00165   0.00336   2.12142
    A6        2.01886   0.00067   0.00095   0.00507   0.00602   2.02488
    A7        1.94239   0.00044   0.00205   0.00197   0.00400   1.94640
    A8        1.93354   0.00074   0.00173   0.00450   0.00620   1.93974
    A9        1.94240   0.00044   0.00206   0.00200   0.00403   1.94644
   A10        1.88900  -0.00060  -0.00157  -0.00319  -0.00479   1.88421
   A11        1.86500  -0.00052  -0.00296  -0.00260  -0.00556   1.85944
   A12        1.88890  -0.00060  -0.00158  -0.00321  -0.00481   1.88409
   A13        1.89889   0.00021   0.00555  -0.00364   0.00191   1.90079
    D1        0.00007   0.00000   0.00000   0.00002   0.00002   0.00009
    D2       -3.14153   0.00000   0.00001  -0.00000   0.00001  -3.14152
    D3        3.14159   0.00000   0.00000   0.00001   0.00001  -3.14159
    D4       -0.00001  -0.00000   0.00001  -0.00001  -0.00001  -0.00002
    D5        1.03666  -0.00004  -0.00058  -0.00108  -0.00166   1.03500
    D6        3.13922  -0.00000  -0.00006  -0.00075  -0.00081   3.13841
    D7       -1.04152   0.00003   0.00045  -0.00043   0.00002  -1.04150
    D8       -2.10502  -0.00004  -0.00058  -0.00109  -0.00167  -2.10669
    D9       -0.00245  -0.00000  -0.00006  -0.00076  -0.00083  -0.00328
   D10        2.09999   0.00003   0.00045  -0.00044   0.00001   2.10000
   D11       -3.14142   0.00000   0.00002   0.00014   0.00016  -3.14127
   D12        0.00017   0.00000   0.00002   0.00012   0.00014   0.00031
         Item               Value     Threshold  Converged?
 Maximum Force            0.001376     0.000450     NO 
 RMS     Force            0.000625     0.000300     NO 
 Maximum Displacement     0.015755     0.001800     NO 
 RMS     Displacement     0.005736     0.001200     NO 
 Predicted change in Energy=-3.407234D-05
 GradGradGradGradGradGradGradGradGradGradGradGradGradGradGradGradGradGrad

                          Input orientation:                          
 ---------------------------------------------------------------------
 Center     Atomic      Atomic             Coordinates (Angstroms)
 Number     Number       Type             X           Y           Z
 ---------------------------------------------------------------------
      1          6           0       -0.487893   -0.389441   -0.000216
      2          6           0        0.847493   -0.369199   -0.000036
      3          1           0       -0.987867    0.574794   -0.000578
      4          1           0        1.417637    0.558778   -0.000155
      5          6           0       -1.315957   -1.644921   -0.000062
      6          1           0       -1.102472   -2.268231    0.878611
      7          1           0       -2.385166   -1.412417    0.002994
      8          1           0       -1.107031   -2.265499   -0.881793
      9          8           0        1.586197   -1.532460    0.000336
     10          1           0        2.524021   -1.307148    0.000710
 ---------------------------------------------------------------------
                    Distance matrix (angstroms):
                    1          2          3          4          5
     1  C    0.000000
     2  C    1.335539   0.000000
     3  H    1.086151   2.063897   0.000000
     4  H    2.128417   1.089130   2.405557   0.000000
     5  C    1.503969   2.511570   2.243832   3.511242   0.000000
     6  H    2.163307   2.860193   2.978070   3.887822   1.098252
     7  H    2.155489   3.396821   2.429293   4.283331   1.094200
     8  H    2.163355   2.862448   2.976240   3.889443   1.098279
     9  O    2.368194   1.377991   3.326609   2.098020   2.904332
    10  H    3.148621   1.921066   3.984353   2.169278   3.854806
                    6          7          8          9         10
     6  H    0.000000
     7  H    1.773253   0.000000
     8  H    1.760412   1.773196   0.000000
     9  O    2.922614   3.973177   2.927281   0.000000
    10  H    3.853031   4.910316   3.857692   0.964510   0.000000
 Stoichiometry    C3H6O
 Framework group  C1[X(C3H6O)]
 Deg. of freedom    24
 Full point group                 C1      NOp   1
 Largest Abelian subgroup         C1      NOp   1
 Largest concise Abelian subgroup C1      NOp   1
                         Standard orientation:                         
 ---------------------------------------------------------------------
 Center     Atomic      Atomic             Coordinates (Angstroms)
 Number     Number       Type             X           Y           Z
 ---------------------------------------------------------------------
      1          6           0        0.587286    0.697551   -0.000017
      2          6           0       -0.743474    0.584676    0.000018
      3          1           0        0.988728    1.706793    0.000045
      4          1           0       -1.403217    1.451246    0.000021
      5          6           0        1.536289   -0.469203   -0.000023
      6          1           0        1.385829   -1.110890   -0.878520
      7          1           0        2.577020   -0.131353   -0.003307
      8          1           0        1.390342   -1.107292    0.881883
      9          8           0       -1.362634   -0.646381    0.000031
     10          1           0       -2.318237   -0.515605   -0.000240
 ---------------------------------------------------------------------
 Rotational constants (GHZ):          17.7056454           5.6588758           4.4050420
 Standard basis: def2TZVP (5D, 7F)
 There are   180 symmetry adapted cartesian basis functions of A   symmetry.
 There are   160 symmetry adapted basis functions of A   symmetry.
   160 basis functions,   252 primitive gaussians,   180 cartesian basis functions
    16 alpha electrons       16 beta electrons
       nuclear repulsion energy       117.8244262295 Hartrees.
 NAtoms=   10 NActive=   10 NUniq=   10 SFac= 1.00D+00 NAtFMM=   60 NAOKFM=F Big=F
 Integral buffers will be    131072 words long.
 Raffenetti 2 integral format.
 Two-electron integral symmetry is turned on.
 Nuclear repulsion after empirical dispersion term =      117.8071456905 Hartrees.
 Standard density basis: Auto (5D, 7F)
   734 Density fitting functions
 There are   734 symmetry adapted density basis functions of A   symmetry.
 One-electron integrals computed using PRISM.
   1 Symmetry operations used in ECPInt.
 ECPInt:  NShTT=    2346 NPrTT=    6892 LenC2=    2337 LenP2D=    5928.
 LDataN:  DoStor=T MaxTD1= 6 Len=  172
 NBasis=   160 RedAO= T EigKep=  1.55D-04  NBF=   160
 NBsUse=   160 1.00D-06 EigRej= -1.00D+00 NBFU=   160
 NBasis=      160 NBas6D=      180 NTT=       12880   NTT6D=    16290
 NDBShl=      110 NDBF=        734 NDBF6D=      928  NNucDB=        0
 IDenFi=        2 ISolve=        0 FullAP=F BlkAPC=T NucTyp=        0
 TolInv= 1.00D-06 TolIt=  1.00D-10 IR12=0.
 FoFCou: FMM=F IPFlag=           0 FMFlag=           0 FMFlg1=           0
         NFxFlg=           0 DoJE=F BraDBF=T KetDBF=T FulRan=T
         wScrn=  0.000000 ICntrl=       600 IOpCl=  3 I1Cent=           6 NGrid=           0
         NMat0=    1 NMatS0=    928 NMatT0=    0 NMatD0=    1 NMtDS0=    0 NMtDT0=    0
 Petite list used in FoFCou.
 DBF EigKep=  1.73D-06 EigRej=  5.51D-07
 NDBF=    734  NBFD=   734
 NRank=   725 NBFDU=   725
 S*AI*S=  7.47256745622    
 Initial guess from the checkpoint file:  "/home/monty/scratch/Gau-140740.chk"
 B after Tr=     0.000000   -0.000000    0.000000
         Rot=    1.000000    0.000080   -0.000045   -0.000124 Ang=   0.02 deg.
 Recovered     1 saved fitting vectors from chk file.
 Requested convergence on RMS density matrix=1.00D-08 within 128 cycles.
 Requested convergence on MAX density matrix=1.00D-06.
 Requested convergence on             energy=1.00D-06.
 No special actions if energy rises.
 FoFCou: FMM=F IPFlag=           0 FMFlag=      100000 FMFlg1=           0
         NFxFlg=           0 DoJE=T BraDBF=T KetDBF=F FulRan=T
         wScrn=  0.000000 ICntrl=       500 IOpCl=  0 I1Cent=           5 NGrid=           0
         NMat0=    1 NMatS0=      1 NMatT0=    0 NMatD0=    1 NMtDS0=    0 NMtDT0=    0
 Symmetry not used in FoFCou.
 SCF Done:  E(RB97D3) =  -193.089240417     A.U. after    8 cycles
            NFock=  8  Conv=0.71D-08     -V/T= 2.0047
   1 Symmetry operations used in ECPInt.
 ECPInt:  NShTT=    2346 NPrTT=    6892 LenC2=    2337 LenP2D=    5928.
 LDataN:  DoStor=T MaxTD1= 7 Len=  274
 Calling FoFJK, ICntrl=      2527 FMM=F ISym2X=0 I1Cent= 4 IOpClX= 0 NMat=1 NMatS=1 NMatT=0.
 ***** Axes restored to original set *****
 -------------------------------------------------------------------
 Center     Atomic                   Forces (Hartrees/Bohr)
 Number     Number              X              Y              Z
 -------------------------------------------------------------------
      1        6           0.000212414    0.000049613    0.000003073
      2        6          -0.000169672   -0.000273875    0.000004864
      3        1          -0.000107026    0.000081248   -0.000005475
      4        1          -0.000118494    0.000210995   -0.000000843
      5        6          -0.000251237   -0.000208647    0.000005491
      6        1          -0.000078358    0.000199232   -0.000223031
      7        1           0.000297076   -0.000103002   -0.000000406
      8        1          -0.000083335    0.000197839    0.000217538
      9        8           0.000390332   -0.000080191   -0.000003083
     10        1          -0.000091700   -0.000073213    0.000001872
 -------------------------------------------------------------------
 Cartesian Forces:  Max     0.000390332 RMS     0.000162805

 GradGradGradGradGradGradGradGradGradGradGradGradGradGradGradGradGradGrad
 Berny optimization.
 Using GEDIIS/GDIIS optimizer.
 FormGI is forming the generalized inverse of G from B-inverse, IUseBI=4.
 Internal  Forces:  Max     0.000407711 RMS     0.000153444
 Search for a local minimum.
 Step number   4 out of a maximum of   44
 All quantities printed in internal units (Hartrees-Bohrs-Radians)
 Mixed Optimization -- En-DIIS/RFO-DIIS
 Swapping is turned off.
 Update second derivatives using D2CorX and points    1    2    3    4
 DE= -3.75D-05 DEPred=-3.41D-05 R= 1.10D+00
 TightC=F SS=  1.41D+00  RLast= 2.20D-02 DXNew= 8.3545D-01 6.5959D-02
 Trust test= 1.10D+00 RLast= 2.20D-02 DXMaxT set to 4.97D-01
 ITU=  1  1  1  0
     Eigenvalues ---    0.00237   0.01295   0.01337   0.02526   0.03069
     Eigenvalues ---    0.06835   0.06872   0.11020   0.15945   0.16000
     Eigenvalues ---    0.16000   0.16051   0.17779   0.21250   0.23120
     Eigenvalues ---    0.27306   0.33905   0.34044   0.36912   0.37211
     Eigenvalues ---    0.37230   0.40882   0.55673   0.60727
 En-DIIS/RFO-DIIS/Sim-DIIS IScMMF=       -3 using points:     4    3
 RFO step:  Lambda=-3.22528760D-06.
 DidBck=F Rises=F RFO-DIIS coefs:    1.11745   -0.11745
 Iteration  1 RMS(Cart)=  0.00188552 RMS(Int)=  0.00000167
 Iteration  2 RMS(Cart)=  0.00000186 RMS(Int)=  0.00000058
 Iteration  3 RMS(Cart)=  0.00000000 RMS(Int)=  0.00000058
 Variable       Old X    -DE/DX   Delta X   Delta X   Delta X     New X
                                 (Linear)    (Quad)   (Total)
    R1        2.52380   0.00001   0.00027  -0.00022   0.00005   2.52385
    R2        2.05253   0.00012   0.00031   0.00007   0.00038   2.05290
    R3        2.84209  -0.00001  -0.00066   0.00047  -0.00019   2.84190
    R4        2.05816   0.00012   0.00029   0.00011   0.00040   2.05856
    R5        2.60403   0.00029  -0.00047   0.00093   0.00046   2.60449
    R6        2.07540  -0.00031  -0.00015  -0.00067  -0.00081   2.07458
    R7        2.06774  -0.00031  -0.00024  -0.00062  -0.00086   2.06688
    R8        2.07545  -0.00030  -0.00015  -0.00065  -0.00080   2.07464
    R9        1.82266  -0.00011  -0.00020  -0.00004  -0.00024   1.82242
    A1        2.03399  -0.00004  -0.00102   0.00053  -0.00048   2.03351
    A2        2.16902   0.00020   0.00043   0.00071   0.00114   2.17016
    A3        2.08017  -0.00016   0.00058  -0.00124  -0.00066   2.07951
    A4        2.13689  -0.00041  -0.00110  -0.00144  -0.00255   2.13434
    A5        2.12142   0.00038   0.00039   0.00142   0.00181   2.12323
    A6        2.02488   0.00003   0.00071   0.00003   0.00073   2.02561
    A7        1.94640  -0.00002   0.00047  -0.00042   0.00005   1.94645
    A8        1.93974   0.00005   0.00073  -0.00030   0.00043   1.94017
    A9        1.94644  -0.00001   0.00047  -0.00040   0.00007   1.94651
   A10        1.88421  -0.00003  -0.00056   0.00018  -0.00038   1.88383
   A11        1.85944   0.00004  -0.00065   0.00087   0.00021   1.85965
   A12        1.88409  -0.00003  -0.00057   0.00015  -0.00042   1.88367
   A13        1.90079   0.00009   0.00022   0.00014   0.00036   1.90116
    D1        0.00009   0.00000   0.00000   0.00002   0.00003   0.00012
    D2       -3.14152   0.00000   0.00000   0.00005   0.00005  -3.14147
    D3       -3.14159   0.00000   0.00000  -0.00001  -0.00001   3.14158
    D4       -0.00002   0.00000  -0.00000   0.00001   0.00001  -0.00001
    D5        1.03500   0.00001  -0.00019  -0.00080  -0.00099   1.03401
    D6        3.13841  -0.00000  -0.00010  -0.00106  -0.00115   3.13725
    D7       -1.04150  -0.00002   0.00000  -0.00135  -0.00134  -1.04284
    D8       -2.10669   0.00001  -0.00020  -0.00083  -0.00103  -2.10772
    D9       -0.00328  -0.00000  -0.00010  -0.00109  -0.00119  -0.00447
   D10        2.10000  -0.00002   0.00000  -0.00138  -0.00138   2.09862
   D11       -3.14127   0.00000   0.00002   0.00011   0.00013  -3.14113
   D12        0.00031   0.00000   0.00002   0.00014   0.00016   0.00046
         Item               Value     Threshold  Converged?
 Maximum Force            0.000408     0.000450     YES
 RMS     Force            0.000153     0.000300     YES
 Maximum Displacement     0.005125     0.001800     NO 
 RMS     Displacement     0.001885     0.001200     NO 
 Predicted change in Energy=-1.612676D-06
 GradGradGradGradGradGradGradGradGradGradGradGradGradGradGradGradGradGrad

                          Input orientation:                          
 ---------------------------------------------------------------------
 Center     Atomic      Atomic             Coordinates (Angstroms)
 Number     Number       Type             X           Y           Z
 ---------------------------------------------------------------------
      1          6           0       -0.487419   -0.390485   -0.000408
      2          6           0        0.847991   -0.370272   -0.000036
      3          1           0       -0.986997    0.574180   -0.001094
      4          1           0        1.415901    0.559321   -0.000288
      5          6           0       -1.316891   -1.644917   -0.000102
      6          1           0       -1.103659   -2.268556    0.877860
      7          1           0       -2.385481   -1.411720    0.003917
      8          1           0       -1.109678   -2.265090   -0.881994
      9          8           0        1.588910   -1.532413    0.000686
     10          1           0        2.526286   -1.305791    0.001272
 ---------------------------------------------------------------------
                    Distance matrix (angstroms):
                    1          2          3          4          5
     1  C    0.000000
     2  C    1.335563   0.000000
     3  H    1.086350   2.063776   0.000000
     4  H    2.127148   1.089341   2.402944   0.000000
     5  C    1.503870   2.512257   2.243484   3.510957   0.000000
     6  H    2.162928   2.860616   2.977804   3.887957   1.097821
     7  H    2.155360   3.397054   2.428906   4.282000   1.093746
     8  H    2.162994   2.863678   2.975313   3.890147   1.097855
     9  O    2.369629   1.378236   3.327617   2.098877   2.907978
    10  H    3.149636   1.921425   3.984653   2.170622   3.858111
                    6          7          8          9         10
     6  H    0.000000
     7  H    1.772290   0.000000
     8  H    1.759868   1.772216   0.000000
     9  O    2.925964   3.976224   2.932288   0.000000
    10  H    3.856400   4.912910   3.862725   0.964382   0.000000
 Stoichiometry    C3H6O
 Framework group  C1[X(C3H6O)]
 Deg. of freedom    24
 Full point group                 C1      NOp   1
 Largest Abelian subgroup         C1      NOp   1
 Largest concise Abelian subgroup C1      NOp   1
                         Standard orientation:                         
 ---------------------------------------------------------------------
 Center     Atomic      Atomic             Coordinates (Angstroms)
 Number     Number       Type             X           Y           Z
 ---------------------------------------------------------------------
      1          6           0        0.587662    0.696693   -0.000022
      2          6           0       -0.743149    0.584128    0.000018
      3          1           0        0.988925    1.706220    0.000076
      4          1           0       -1.400608    1.452697    0.000034
      5          6           0        1.537662   -0.469122   -0.000031
      6          1           0        1.387209   -1.111277   -0.877648
      7          1           0        2.577795   -0.130913   -0.004491
      8          1           0        1.393328   -1.106394    0.882203
      9          8           0       -1.364939   -0.645877    0.000048
     10          1           0       -2.320193   -0.513508   -0.000344
 ---------------------------------------------------------------------
 Rotational constants (GHZ):          17.7277671           5.6482684           4.3999018
 Standard basis: def2TZVP (5D, 7F)
 There are   180 symmetry adapted cartesian basis functions of A   symmetry.
 There are   160 symmetry adapted basis functions of A   symmetry.
   160 basis functions,   252 primitive gaussians,   180 cartesian basis functions
    16 alpha electrons       16 beta electrons
       nuclear repulsion energy       117.7990525022 Hartrees.
 NAtoms=   10 NActive=   10 NUniq=   10 SFac= 1.00D+00 NAtFMM=   60 NAOKFM=F Big=F
 Integral buffers will be    131072 words long.
 Raffenetti 2 integral format.
 Two-electron integral symmetry is turned on.
 Nuclear repulsion after empirical dispersion term =      117.7817776587 Hartrees.
 Standard density basis: Auto (5D, 7F)
   734 Density fitting functions
 There are   734 symmetry adapted density basis functions of A   symmetry.
 One-electron integrals computed using PRISM.
   1 Symmetry operations used in ECPInt.
 ECPInt:  NShTT=    2346 NPrTT=    6892 LenC2=    2337 LenP2D=    5928.
 LDataN:  DoStor=T MaxTD1= 6 Len=  172
 NBasis=   160 RedAO= T EigKep=  1.54D-04  NBF=   160
 NBsUse=   160 1.00D-06 EigRej= -1.00D+00 NBFU=   160
 NBasis=      160 NBas6D=      180 NTT=       12880   NTT6D=    16290
 NDBShl=      110 NDBF=        734 NDBF6D=      928  NNucDB=        0
 IDenFi=        2 ISolve=        0 FullAP=F BlkAPC=T NucTyp=        0
 TolInv= 1.00D-06 TolIt=  1.00D-10 IR12=0.
 FoFCou: FMM=F IPFlag=           0 FMFlag=           0 FMFlg1=           0
         NFxFlg=           0 DoJE=F BraDBF=T KetDBF=T FulRan=T
         wScrn=  0.000000 ICntrl=       600 IOpCl=  3 I1Cent=           6 NGrid=           0
         NMat0=    1 NMatS0=    928 NMatT0=    0 NMatD0=    1 NMtDS0=    0 NMtDT0=    0
 Petite list used in FoFCou.
 DBF EigKep=  1.73D-06 EigRej=  5.53D-07
 NDBF=    734  NBFD=   734
 NRank=   725 NBFDU=   725
 S*AI*S=  7.47284930170    
 Initial guess from the checkpoint file:  "/home/monty/scratch/Gau-140740.chk"
 B after Tr=    -0.000000   -0.000000    0.000000
         Rot=    1.000000    0.000060   -0.000026    0.000155 Ang=   0.02 deg.
 Recovered     1 saved fitting vectors from chk file.
 Requested convergence on RMS density matrix=1.00D-08 within 128 cycles.
 Requested convergence on MAX density matrix=1.00D-06.
 Requested convergence on             energy=1.00D-06.
 No special actions if energy rises.
 FoFCou: FMM=F IPFlag=           0 FMFlag=      100000 FMFlg1=           0
         NFxFlg=           0 DoJE=T BraDBF=T KetDBF=F FulRan=T
         wScrn=  0.000000 ICntrl=       500 IOpCl=  0 I1Cent=           5 NGrid=           0
         NMat0=    1 NMatS0=      1 NMatT0=    0 NMatD0=    1 NMtDS0=    0 NMtDT0=    0
 Symmetry not used in FoFCou.
 SCF Done:  E(RB97D3) =  -193.089242209     A.U. after    8 cycles
            NFock=  8  Conv=0.33D-08     -V/T= 2.0047
   1 Symmetry operations used in ECPInt.
 ECPInt:  NShTT=    2346 NPrTT=    6892 LenC2=    2337 LenP2D=    5928.
 LDataN:  DoStor=T MaxTD1= 7 Len=  274
 Calling FoFJK, ICntrl=      2527 FMM=F ISym2X=0 I1Cent= 4 IOpClX= 0 NMat=1 NMatS=1 NMatT=0.
 ***** Axes restored to original set *****
 -------------------------------------------------------------------
 Center     Atomic                   Forces (Hartrees/Bohr)
 Number     Number              X              Y              Z
 -------------------------------------------------------------------
      1        6           0.000150125    0.000013905    0.000004478
      2        6          -0.000022107   -0.000056407    0.000004370
      3        1          -0.000013678   -0.000009545   -0.000006942
      4        1          -0.000014940    0.000016859   -0.000000540
      5        6          -0.000088802   -0.000114521    0.000008934
      6        1           0.000002706    0.000040450   -0.000020775
      7        1           0.000025472    0.000018102    0.000000374
      8        1          -0.000005531    0.000039000    0.000010856
      9        8          -0.000035888    0.000032300   -0.000003375
     10        1           0.000002645    0.000019858    0.000002621
 -------------------------------------------------------------------
 Cartesian Forces:  Max     0.000150125 RMS     0.000043138

 GradGradGradGradGradGradGradGradGradGradGradGradGradGradGradGradGradGrad
 Berny optimization.
 Using GEDIIS/GDIIS optimizer.
 FormGI is forming the generalized inverse of G from B-inverse, IUseBI=4.
 Internal  Forces:  Max     0.000087702 RMS     0.000031676
 Search for a local minimum.
 Step number   5 out of a maximum of   44
 All quantities printed in internal units (Hartrees-Bohrs-Radians)
 Mixed Optimization -- En-DIIS/RFO-DIIS
 Swapping is turned off.
 Update second derivatives using D2CorX and points    1    2    3    4    5
 DE= -1.79D-06 DEPred=-1.61D-06 R= 1.11D+00
 TightC=F SS=  1.41D+00  RLast= 4.92D-03 DXNew= 8.3545D-01 1.4747D-02
 Trust test= 1.11D+00 RLast= 4.92D-03 DXMaxT set to 4.97D-01
 ITU=  1  1  1  1  0
     Eigenvalues ---    0.00233   0.01294   0.01337   0.02524   0.03069
     Eigenvalues ---    0.06830   0.06839   0.11009   0.14732   0.16000
     Eigenvalues ---    0.16005   0.16192   0.17779   0.19602   0.23514
     Eigenvalues ---    0.26866   0.33903   0.34257   0.36630   0.37222
     Eigenvalues ---    0.37257   0.43062   0.55921   0.61566
 En-DIIS/RFO-DIIS/Sim-DIIS IScMMF=       -3 using points:     5    4    3
 RFO step:  Lambda=-2.00457243D-07.
 DidBck=F Rises=F RFO-DIIS coefs:    1.60493   -0.60391   -0.00102
 Iteration  1 RMS(Cart)=  0.00100477 RMS(Int)=  0.00000058
 Iteration  2 RMS(Cart)=  0.00000063 RMS(Int)=  0.00000001
 Variable       Old X    -DE/DX   Delta X   Delta X   Delta X     New X
                                 (Linear)    (Quad)   (Total)
    R1        2.52385  -0.00007   0.00003  -0.00015  -0.00012   2.52373
    R2        2.05290  -0.00000   0.00023  -0.00020   0.00003   2.05293
    R3        2.84190   0.00005  -0.00012   0.00029   0.00017   2.84207
    R4        2.05856   0.00001   0.00024  -0.00019   0.00005   2.05861
    R5        2.60449  -0.00006   0.00028  -0.00041  -0.00013   2.60436
    R6        2.07458  -0.00004  -0.00049   0.00032  -0.00017   2.07441
    R7        2.06688  -0.00002  -0.00052   0.00040  -0.00012   2.06676
    R8        2.07464  -0.00003  -0.00049   0.00034  -0.00015   2.07450
    R9        1.82242   0.00001  -0.00015   0.00015  -0.00000   1.82242
    A1        2.03351  -0.00003  -0.00030   0.00017  -0.00013   2.03338
    A2        2.17016   0.00009   0.00070  -0.00020   0.00049   2.17065
    A3        2.07951  -0.00006  -0.00039   0.00003  -0.00036   2.07915
    A4        2.13434  -0.00004  -0.00155   0.00115  -0.00040   2.13395
    A5        2.12323   0.00004   0.00110  -0.00080   0.00030   2.12353
    A6        2.02561   0.00000   0.00045  -0.00035   0.00010   2.02571
    A7        1.94645  -0.00002   0.00004  -0.00013  -0.00010   1.94635
    A8        1.94017  -0.00003   0.00026  -0.00046  -0.00020   1.93997
    A9        1.94651  -0.00002   0.00005  -0.00012  -0.00008   1.94643
   A10        1.88383   0.00002  -0.00024   0.00033   0.00009   1.88392
   A11        1.85965   0.00003   0.00012   0.00015   0.00028   1.85993
   A12        1.88367   0.00002  -0.00026   0.00029   0.00003   1.88370
   A13        1.90116  -0.00003   0.00022  -0.00039  -0.00017   1.90098
    D1        0.00012   0.00000   0.00002   0.00003   0.00004   0.00016
    D2       -3.14147   0.00000   0.00003   0.00000   0.00003  -3.14144
    D3        3.14158   0.00000  -0.00001   0.00001  -0.00000   3.14158
    D4       -0.00001  -0.00000   0.00001  -0.00002  -0.00001  -0.00002
    D5        1.03401   0.00000  -0.00060  -0.00095  -0.00155   1.03246
    D6        3.13725  -0.00000  -0.00070  -0.00094  -0.00164   3.13562
    D7       -1.04284  -0.00001  -0.00081  -0.00097  -0.00178  -1.04463
    D8       -2.10772   0.00000  -0.00062  -0.00097  -0.00159  -2.10931
    D9       -0.00447  -0.00000  -0.00072  -0.00096  -0.00168  -0.00615
   D10        2.09862  -0.00001  -0.00084  -0.00099  -0.00183   2.09679
   D11       -3.14113   0.00000   0.00008   0.00013   0.00021  -3.14093
   D12        0.00046   0.00000   0.00009   0.00010   0.00020   0.00066
         Item               Value     Threshold  Converged?
 Maximum Force            0.000088     0.000450     YES
 RMS     Force            0.000032     0.000300     YES
 Maximum Displacement     0.003059     0.001800     NO 
 RMS     Displacement     0.001005     0.001200     YES
 Predicted change in Energy=-1.002289D-07
 GradGradGradGradGradGradGradGradGradGradGradGradGradGradGradGradGradGrad

                          Input orientation:                          
 ---------------------------------------------------------------------
 Center     Atomic      Atomic             Coordinates (Angstroms)
 Number     Number       Type             X           Y           Z
 ---------------------------------------------------------------------
      1          6           0       -0.487174   -0.390875   -0.000689
      2          6           0        0.848173   -0.370522   -0.000055
      3          1           0       -0.986736    0.573814   -0.001819
      4          1           0        1.415631    0.559379   -0.000483
      5          6           0       -1.317179   -1.645064   -0.000159
      6          1           0       -1.103176   -2.269138    0.877194
      7          1           0       -2.385566   -1.411261    0.005242
      8          1           0       -1.111296   -2.264621   -0.882698
      9          8           0        1.589520   -1.532307    0.001194
     10          1           0        2.526766   -1.305147    0.002085
 ---------------------------------------------------------------------
                    Distance matrix (angstroms):
                    1          2          3          4          5
     1  C    0.000000
     2  C    1.335502   0.000000
     3  H    1.086365   2.063653   0.000000
     4  H    2.126887   1.089368   2.402411   0.000000
     5  C    1.503961   2.512611   2.243349   3.511100   0.000000
     6  H    2.162870   2.860433   2.978019   3.887829   1.097731
     7  H    2.155253   3.397092   2.428435   4.281653   1.093683
     8  H    2.162959   2.864646   2.974589   3.890840   1.097777
     9  O    2.369711   1.378167   3.327590   2.098903   2.908886
    10  H    3.149561   1.921250   3.984370   2.170503   3.858946
                    6          7          8          9         10
     6  H    0.000000
     7  H    1.772224   0.000000
     8  H    1.759917   1.772124   0.000000
     9  O    2.925903   3.976931   2.934614   0.000000
    10  H    3.856368   4.913479   3.865091   0.964381   0.000000
 Stoichiometry    C3H6O
 Framework group  C1[X(C3H6O)]
 Deg. of freedom    24
[...]
 Number     Number              X              Y              Z
 -------------------------------------------------------------------
      1        6          -0.000016956   -0.000065372   -0.000024425
      2        6          -0.000038269    0.000089953    0.000005105
      3        1          -0.000005019    0.000011030    0.000010288
      4        1           0.000008810   -0.000011404   -0.000011950
      5        6          -0.000003773    0.000067317   -0.000069508
      6        1          -0.000006202   -0.000034023    0.000033468
      7        1           0.000001823   -0.000021278    0.000028360
      8        1           0.000022930    0.000017904    0.000013541
      9        8           0.000040211   -0.000052889    0.000016706
     10        1          -0.000003556   -0.000001238   -0.000001586
 -------------------------------------------------------------------
 Cartesian Forces:  Max     0.000089953 RMS     0.000033683
 FormGI is forming the generalized inverse of G from B-inverse, IUseBI=4.

 GradGradGradGradGradGradGradGradGradGradGradGradGradGradGradGradGradGrad
 Berny optimization.
 Internal  Forces:  Max     0.000066656 RMS     0.000019730
 Search for a local minimum.
 Step number   1 out of a maximum of    2
 All quantities printed in internal units (Hartrees-Bohrs-Radians)
 Second derivative matrix not updated -- analytic derivatives used.
 ITU=  0
     Eigenvalues ---    0.00069   0.00288   0.01369   0.02467   0.04120
     Eigenvalues ---    0.05521   0.05572   0.10618   0.11577   0.12094
     Eigenvalues ---    0.14017   0.14050   0.15871   0.16616   0.20980
     Eigenvalues ---    0.30501   0.31452   0.32606   0.33628   0.33982
     Eigenvalues ---    0.34576   0.39528   0.51345   0.59960
 Angle between quadratic step and forces=  61.40 degrees.
 Linear search not attempted -- first point.
 Iteration  1 RMS(Cart)=  0.00028853 RMS(Int)=  0.00000008
 Iteration  2 RMS(Cart)=  0.00000009 RMS(Int)=  0.00000001
 Variable       Old X    -DE/DX   Delta X   Delta X   Delta X     New X
                                 (Linear)    (Quad)   (Total)
    R1        2.52414   0.00001   0.00000  -0.00000  -0.00000   2.52414
    R2        2.05549   0.00001   0.00000   0.00004   0.00004   2.05553
    R3        2.83272  -0.00003   0.00000  -0.00015  -0.00015   2.83257
    R4        2.05905  -0.00000   0.00000  -0.00003  -0.00003   2.05902
    R5        2.60556   0.00007   0.00000   0.00022   0.00022   2.60578
    R6        2.06526   0.00003   0.00000   0.00011   0.00011   2.06538
    R7        2.07594   0.00002   0.00000   0.00007   0.00007   2.07600
    R8        2.07610  -0.00003   0.00000  -0.00010  -0.00010   2.07600
    R9        1.82183  -0.00000   0.00000  -0.00000  -0.00000   1.82182
    A1        2.02756  -0.00001   0.00000  -0.00010  -0.00010   2.02745
    A2        2.19434   0.00003   0.00000   0.00020   0.00020   2.19455
    A3        2.06129  -0.00001   0.00000  -0.00010  -0.00010   2.06119
    A4        2.12249   0.00001   0.00000   0.00015   0.00015   2.12263
    A5        2.14116  -0.00001   0.00000  -0.00006  -0.00006   2.14109
    A6        2.01954  -0.00001   0.00000  -0.00008  -0.00008   2.01946
    A7        1.94660   0.00003   0.00000   0.00022   0.00022   1.94682
    A8        1.93927   0.00002   0.00000   0.00012   0.00012   1.93939
    A9        1.93954  -0.00003   0.00000  -0.00015  -0.00015   1.93939
   A10        1.88679  -0.00004   0.00000  -0.00044  -0.00044   1.88635
   A11        1.88625   0.00001   0.00000   0.00010   0.00010   1.88635
   A12        1.86215   0.00001   0.00000   0.00015   0.00015   1.86231
   A13        1.89762  -0.00000   0.00000  -0.00006  -0.00006   1.89756
    D1        0.00070  -0.00001   0.00000  -0.00070  -0.00070  -0.00000
    D2       -3.14127  -0.00000   0.00000  -0.00032  -0.00032   3.14159
    D3       -3.14125  -0.00001   0.00000  -0.00035  -0.00035  -3.14159
    D4       -0.00004   0.00000   0.00000   0.00004   0.00004  -0.00000
    D5        0.00037   0.00001   0.00000  -0.00037  -0.00037  -0.00000
    D6        2.10688  -0.00001   0.00000  -0.00070  -0.00070   2.10617
    D7       -2.10564  -0.00000   0.00000  -0.00053  -0.00053  -2.10618
    D8       -3.14159   0.00001   0.00000  -0.00000  -0.00000   3.14159
    D9       -1.03508  -0.00001   0.00000  -0.00034  -0.00034  -1.03542
   D10        1.03559   0.00000   0.00000  -0.00017  -0.00017   1.03542
   D11       -3.14089  -0.00001   0.00000  -0.00070  -0.00070   3.14159
   D12        0.00034   0.00000   0.00000  -0.00034  -0.00034  -0.00000
         Item               Value     Threshold  Converged?
 Maximum Force            0.000067     0.000450     YES
 RMS     Force            0.000020     0.000300     YES
 Maximum Displacement     0.000843     0.001800     YES
 RMS     Displacement     0.000289     0.001200     YES
 Predicted change in Energy=-4.689266D-08
 Optimization completed.
    -- Stationary point found.
                           ----------------------------
                           !   Optimized Parameters   !
                           ! (Angstroms and Degrees)  !
 --------------------------                            --------------------------
 ! Name  Definition              Value          Derivative Info.                !
 --------------------------------------------------------------------------------
 ! R1    R(1,2)                  1.3357         -DE/DX =    0.0                 !
 ! R2    R(1,3)                  1.0877         -DE/DX =    0.0                 !
 ! R3    R(1,5)                  1.499          -DE/DX =    0.0                 !
 ! R4    R(2,4)                  1.0896         -DE/DX =    0.0                 !
 ! R5    R(2,9)                  1.3788         -DE/DX =    0.0001              !
 ! R6    R(5,6)                  1.0929         -DE/DX =    0.0                 !
 ! R7    R(5,7)                  1.0985         -DE/DX =    0.0                 !
 ! R8    R(5,8)                  1.0986         -DE/DX =    0.0                 !
 ! R9    R(9,10)                 0.9641         -DE/DX =    0.0                 !
 ! A1    A(2,1,3)              116.1705         -DE/DX =    0.0                 !
 ! A2    A(2,1,5)              125.7264         -DE/DX =    0.0                 !
 ! A3    A(3,1,5)              118.1031         -DE/DX =    0.0                 !
 ! A4    A(1,2,4)              121.6095         -DE/DX =    0.0                 !
 ! A5    A(1,2,9)              122.6794         -DE/DX =    0.0                 !
 ! A6    A(4,2,9)              115.7111         -DE/DX =    0.0                 !
 ! A7    A(1,5,6)              111.5319         -DE/DX =    0.0                 !
 ! A8    A(1,5,7)              111.1122         -DE/DX =    0.0                 !
 ! A9    A(1,5,8)              111.1275         -DE/DX =    0.0                 !
 ! A10   A(6,5,7)              108.1052         -DE/DX =    0.0                 !
 ! A11   A(6,5,8)              108.0742         -DE/DX =    0.0                 !
 ! A12   A(7,5,8)              106.6935         -DE/DX =    0.0                 !
 ! A13   A(2,9,10)             108.7258         -DE/DX =    0.0                 !
 ! D1    D(3,1,2,4)              0.0403         -DE/DX =    0.0                 !
 ! D2    D(3,1,2,9)            180.0183         -DE/DX =    0.0                 !
 ! D3    D(5,1,2,4)           -179.9802         -DE/DX =    0.0                 !
 ! D4    D(5,1,2,9)             -0.0022         -DE/DX =    0.0                 !
 ! D5    D(2,1,5,6)              0.0209         -DE/DX =    0.0                 !
 ! D6    D(2,1,5,7)            120.7152         -DE/DX =    0.0                 !
 ! D7    D(2,1,5,8)           -120.6444         -DE/DX =    0.0                 !
 ! D8    D(3,1,5,6)            180.0001         -DE/DX =    0.0                 !
 ! D9    D(3,1,5,7)            -59.3057         -DE/DX =    0.0                 !
 ! D10   D(3,1,5,8)             59.3347         -DE/DX =    0.0                 !
 ! D11   D(1,2,9,10)           180.0403         -DE/DX =    0.0                 !
 ! D12   D(4,2,9,10)             0.0194         -DE/DX =    0.0                 !
 --------------------------------------------------------------------------------
 GradGradGradGradGradGradGradGradGradGradGradGradGradGradGradGradGradGrad


 ----------------------------------------------------------------------

 Electric dipole moment (input orientation):
 (Debye = 10**-18 statcoulomb cm , SI units = C m)
                  (au)            (Debye)         (10**-30 SI)
   Tot        0.602675D+00      0.153185D+01      0.510969D+01
   x          0.489383D+00      0.124389D+01      0.414916D+01
   y          0.351731D+00      0.894012D+00      0.298210D+01
   z          0.262359D-02      0.666850D-02      0.222437D-01

 Dipole polarizability, Alpha (input orientation).
 (esu units = cm**3 , SI units = C**2 m**2 J**-1)
 Alpha(0;0):
               (au)            (10**-24 esu)      (10**-40 SI)
   iso        0.432687D+02      0.641175D+01      0.713404D+01
   aniso      0.242158D+02      0.358841D+01      0.399265D+01
   xx         0.578323D+02      0.856986D+01      0.953526D+01
   yx         0.245548D+01      0.363865D+00      0.404855D+00
   yy         0.399321D+02      0.591733D+01      0.658392D+01
   zx         0.357262D+01      0.529408D+00      0.589046D+00
   zy        -0.142686D+01     -0.211439D+00     -0.235258D+00
   zz         0.320416D+02      0.474807D+01      0.528294D+01

 ----------------------------------------------------------------------

 Dipole orientation:
     6          0.35037418          0.06848941         -1.19065122
     6          0.86912024         -1.25942151          0.89234006
     1         -0.38735180          1.96439824         -0.89684153
     1          0.56560665         -0.47879145          2.77334630
     6          0.69858632         -0.82989700         -3.85447503
     1          1.44731139         -2.75374718         -3.91382712
     1         -1.09870838         -0.80478498         -4.89303602
     1          2.00586218          0.40242071         -4.89495676
     8          1.81443634         -3.68621019          0.81462902
     1          2.04522660         -4.27894394          2.52180780

 Electric dipole moment (dipole orientation):
 (Debye = 10**-18 statcoulomb cm , SI units = C m)
                  (au)            (Debye)         (10**-30 SI)
   Tot        0.602675D+00      0.153185D+01      0.510969D+01
   x          0.000000D+00      0.000000D+00      0.000000D+00
   y          0.000000D+00      0.000000D+00      0.000000D+00
   z          0.602675D+00      0.153185D+01      0.510969D+01

 Dipole polarizability, Alpha (dipole orientation).
 (esu units = cm**3 , SI units = C**2 m**2 J**-1)
 Alpha(0;0):
               (au)            (10**-24 esu)      (10**-40 SI)
   iso        0.432687D+02      0.641175D+01      0.713404D+01
   aniso      0.242158D+02      0.358841D+01      0.399265D+01
   xx         0.329589D+02      0.488401D+01      0.543419D+01
   yx        -0.451100D+01     -0.668461D+00     -0.743763D+00
   yy         0.427668D+02      0.633739D+01      0.705130D+01
   zx         0.290073D+01      0.429844D+00      0.478266D+00
   zy        -0.741548D+01     -0.109886D+01     -0.122265D+01
   zz         0.540802D+02      0.801386D+01      0.891662D+01

 ----------------------------------------------------------------------
 Unable to Open any file for archive entry.
 1\1\GINC-RTX\Freq\RB97D3\def2TZVP/Auto\C3H6O1\MONTY\21-Mar-2026\0\\#N 
 Geom=AllCheck Guess=TCheck SCRF=Check GenChk RB97D3/def2TZVP/Auto Freq
 \\cis 1-propenol\\0,1\C,-0.4650400555,-0.4312511173,-0.1744510825\C,0.
 8558846799,-0.3818668191,0.0175490831\H,-0.946278849,0.5067238176,-0.4
 422985854\H,1.4140688531,0.5478412934,-0.0887847575\C,-1.3220742611,-1
 .6550642289,-0.0527601191\H,-0.7311127262,-2.5331480171,0.2195304764\H
 ,-2.1013000676,-1.5182544516,0.7093916526\H,-1.839256183,-1.87186027,-
 0.997479911\O,1.6002712763,-1.490593853,0.360647811\H,2.5237995532,-1.
 2282700339,0.4484675624\\Version=ES64L-G16RevC.01\State=1-A\HF=-193.09
 02969\RMSD=1.571e-09\RMSF=3.368e-05\ZeroPoint=0.0827231\Thermal=0.0880
 519\ETot=-193.002245\HTot=-193.0013008\GTot=-193.0352158\Dipole=0.4893
 828,0.3517312,0.0026236\DipoleDeriv=-0.2013337,0.1501406,-0.0140018,0.
 1192202,0.0752787,-0.0619428,-0.0074236,-0.0573077,-0.3017514,0.864278
 1,-0.3207161,0.2179926,-0.743457,0.486931,-0.2405267,0.3055276,-0.1756
 933,-0.043291,0.0123584,0.0263088,-0.0250098,0.021152,-0.1052417,0.053
 9794,-0.0240293,0.0548365,0.1250705,-0.0433381,-0.082189,-0.0150972,-0
 .0482809,-0.0986607,0.0472482,-0.0221432,0.0419742,0.153824,0.0442151,
 -0.0210509,-0.0186949,0.0325769,0.0281269,0.0395414,-0.0299167,0.03131
 09,0.1839723,0.0164437,0.0903621,-0.0268762,0.0165144,-0.0704761,0.031
 5639,-0.0115587,0.0428676,0.0589648,-0.0836358,-0.0249188,0.0968329,-0
 .0400446,0.030509,-0.0434467,0.150221,0.0006566,-0.0281821,-0.0151746,
 -0.0542037,-0.0744708,-0.1009521,0.0272285,-0.0187312,-0.1151329,-0.05
 3363,-0.0935551,-0.8592615,0.2953862,-0.1425768,0.8250595,-0.6103264,0
 .1851441,-0.2520158,0.1040572,-0.3861817,0.2654484,-0.0591194,0.001901
 9,-0.0817884,0.2366308,0.0071705,0.0064715,0.0106611,0.3311297\Polar=5
 7.8322898,2.455485,39.9321131,3.5726242,-1.4268619,32.0415759\Quadrupo
 le=3.6579549,-1.1884626,-2.4694923,1.1060848,0.7332982,-0.1237479\PG=C
 01 [X(C3H6O1)]\NImag=0\\0.78278174,-0.01418459,0.55479193,0.10485779,-
 0.09262890,0.15266063,-0.49607896,-0.03381310,-0.06165212,0.82921483,-
 0.02909458,-0.10275784,0.00688783,0.07608839,0.56316801,-0.06262462,0.
 00614949,-0.05878184,0.09403394,-0.08129939,0.14419433,-0.10560221,0.1
 0018450,-0.03298467,-0.01050041,0.02902577,-0.00724627,0.11283716,0.10
 640285,-0.25048713,0.06282525,-0.00263470,-0.00047020,-0.00079697,-0.1
 1018156,0.26667419,-0.03428420,0.06188223,-0.04368802,-0.00068767,0.00
 404633,-0.00332102,0.03692537,-0.06778850,0.04032007,-0.01169931,-0.02
 735558,0.00330072,-0.13083673,-0.12127013,0.00998023,0.00006867,0.0003
 6538,0.00078877,0.13626327,0.00106583,0.00172606,0.00055463,-0.1192383
 7,-0.23678549,0.02386455,-0.00004268,0.00077309,-0.00131451,0.12230149
 ,0.26044697,-0.00255432,-0.00379302,0.00402356,0.00954605,0.02354018,-
 0.03605240,0.00087192,-0.00125558,-0.00517234,-0.00750450,-0.03078602,
 0.02571545,-0.12017020,-0.05436425,0.00271273,-0.02127459,-0.03043410,
 0.00194260,0.01004488,0.01160583,-0.00095771,-0.00268658,0.00039588,-0
 .00210791,0.51225441,-0.05737406,-0.16922616,0.01286272,-0.01169034,0.
 00334252,-0.00101258,-0.01566873,-0.01779336,0.00140717,0.00207785,0.0
 0167920,0.00215108,-0.04568080,0.49565337,0.00333069,0.01333258,-0.066
 73563,-0.00192411,-0.00388940,0.00760267,0.00468150,0.00559292,0.00020
 713,-0.00245543,0.00188866,0.00977111,0.01065724,-0.00532438,0.5061956
 3,0.01262890,-0.01592028,0.00538591,0.00078412,-0.00062418,0.00019967,
 -0.00189752,-0.00356927,0.00028362,0.00026186,0.00029365,-0.00002373,-
 0.12471562,0.11609858,-0.03622123,0.13485983,0.01388189,-0.02241272,0.
 00656427,0.00278568,-0.00156935,0.00081907,-0.00351912,-0.00260026,0.0
 0021806,0.00008118,0.00017757,-0.00002169,0.11263169,-0.21034150,0.051
 46307,-0.12277228,0.23122474,-0.00078470,0.00198776,-0.00152559,-0.000
 50700,0.00029833,0.00019333,0.00027426,0.00021028,0.00105937,0.0000209
 2,0.00001128,0.00001582,-0.03550335,0.05199651,-0.06132222,0.03932733,
 -0.05755090,0.06205516,-0.01787270,-0.00152539,0.01060076,0.00197710,-
 0.00272681,0.00127992,0.00059627,-0.00029192,-0.00041435,-0.00048717,-
 0.00031779,-0.00120517,-0.16312023,0.02800830,0.12174328,-0.01182789,0
 .00174857,0.01202678,0.18076714,-0.02287099,0.00275096,0.01889019,0.00
 086650,-0.00466644,0.00120141,0.00085729,0.00062235,-0.00032654,-0.000
 30756,-0.00043227,-0.00196313,0.02544054,-0.04841005,-0.02255348,0.016
 09696,-0.00301864,-0.01868337,-0.02371334,0.05232915,0.00095158,0.0012
 1191,0.00107316,-0.00140861,0.00103653,-0.00051039,0.00018459,0.000320
 28,0.00020580,-0.00005298,-0.00008851,0.00000457,0.12159286,-0.0238276
 7,-0.16192394,-0.00659917,0.00051061,0.00612364,-0.13447216,0.02647403
 ,0.17590900,-0.01409323,-0.00643474,-0.01498531,0.00164717,-0.00273461
 ,0.00043871,0.00053198,0.00004040,0.00056350,-0.00086245,0.00013493,0.
 00110565,-0.09336549,-0.01802124,-0.10076565,-0.00811618,-0.00392900,-
 0.01480707,0.01027968,0.00416637,0.01949285,0.10406999,-0.01629100,-0.
 00635418,-0.02262248,0.00151312,-0.00491308,0.00109639,0.00062734,0.00
 059656,0.00040470,-0.00084061,0.00035860,0.00171041,-0.01984270,-0.052
 08279,-0.03984972,0.01033590,0.00566102,0.02240745,-0.00173327,-0.0013
 9773,-0.00480866,0.02655506,0.05615080,0.00111633,-0.00016665,0.006409
 54,0.00151087,0.00006121,0.00007016,-0.00039458,-0.00050945,0.00029265
 ,0.00015173,-0.00001642,-0.00041279,-0.09970238,-0.03789428,-0.2278531
 5,-0.00210505,-0.00117764,-0.00629321,-0.00995415,-0.00352742,-0.02083
 766,0.10953538,0.04320461,0.24864468,-0.03106593,0.04945696,-0.0164152
 8,-0.14900347,0.09353913,-0.03738071,-0.00531588,-0.00147256,-0.001821
 52,0.00621428,-0.00352195,0.00106663,0.00222561,0.00211359,0.00079928,
 -0.00222104,-0.00118141,-0.00003617,-0.00034114,-0.00083440,0.00046206
 ,-0.00015407,-0.00059966,-0.00021210,0.63651933,0.01691027,-0.00181542
 ,0.00490285,0.04271030,-0.21712234,0.04492500,-0.00256224,0.00262143,0
 .00083688,0.02375992,-0.02812825,0.01028116,0.00077289,-0.00233798,-0.
 00059976,-0.00013902,0.00226090,-0.00056879,0.00066103,0.00212354,-0.0
 0075438,0.00042460,0.00178772,0.00007029,0.02312082,0.31731375,-0.0096
 9007,0.00989167,0.00588718,-0.02690094,0.05274510,-0.04619874,-0.00159
 642,0.00100250,0.00809607,-0.00456734,0.00609784,0.00204800,0.00107295
 ,-0.00039785,-0.00558650,-0.00025060,-0.00072760,-0.00027315,0.0001487
 6,0.00067951,-0.00008895,-0.00041772,-0.00175077,0.00006374,0.09070929
 ,-0.05881041,0.04107812,0.00117191,0.00395647,-0.00082053,-0.02592905,
 -0.01176889,-0.00062348,-0.00076292,-0.00026445,-0.00039581,0.00376417
 ,-0.00107099,0.00080539,0.00080781,0.00013685,0.00015442,0.00024354,0.
 00027280,-0.00001100,0.00002894,0.00029863,-0.00015101,0.00006260,0.00
 027581,0.00005396,-0.45685769,-0.10565857,-0.04850789,0.47747069,0.001
 55438,-0.00621552,0.00176366,0.04341252,0.00177421,0.00505304,0.001279
 42,0.00006332,0.00063418,0.00118806,0.00018451,0.00013660,-0.00052499,
 -0.00048325,-0.00006050,0.00019992,0.00061825,-0.00010854,-0.00010938,
 0.00009913,-0.00007414,-0.00020177,0.00019307,-0.00004427,-0.16062052,
 -0.07670335,-0.00872998,0.11382234,0.08046964,-0.00031849,0.00213293,0
 .00067700,-0.01201041,-0.00342672,-0.00719611,-0.00071568,0.00039926,0
 .00200028,0.00033788,-0.00021149,0.00005901,0.00029296,0.00003928,-0.0
 0035511,0.00000327,-0.00009725,-0.00003316,0.00024632,-0.00019118,0.00
 004478,-0.00016034,0.00020807,-0.00008397,-0.03717147,-0.00028284,-0.0
 0502577,0.04949596,0.00142994,0.00991305\\0.00001696,0.00006537,0.0000
 2442,0.00003827,-0.00008995,-0.00000511,0.00000502,-0.00001103,-0.0000
 1029,-0.00000881,0.00001140,0.00001195,0.00000377,-0.00006732,0.000069
 51,0.00000620,0.00003402,-0.00003347,-0.00000182,0.00002128,-0.0000283
 6,-0.00002293,-0.00001790,-0.00001354,-0.00004021,0.00005289,-0.000016
 71,0.00000356,0.00000124,0.00000159\\\@
 The archive entry for this job was punched.


 IF YOU WISH TO UNDERSTAND THE FRAGRANCE OF THE ROSE, 
 OR THE TENACITY OF THE OAK; 
 IF YOU ARE NOT SATISFIED UNTIL YOU KNOW THE SECRET PATHS 
 BY WHICH THE SUNSHINE AND THE AIR ACHIEVE THESE WONDERS; 
 IF YOU WISH TO SEE THE PATTERN WHICH UNDERLIES ONE LARGE FIELD OF 
 HUMAN EXPERIENCE AND HUMAN MEASUREMENT, THEN TAKE UP CHEMISTRY.

                                         -- C. A. COULSON, 1973.
 Job cpu time:       0 days  0 hours  1 minutes 29.6 seconds.
 Elapsed time:       0 days  0 hours  0 minutes 22.4 seconds.
 File lengths (MBytes):  RWF=     32 Int=      0 D2E=      0 Chk=      7 Scr=      1
 Normal termination of Gaussian 16 at Sat Mar 21 20:38:38 2026.
