 Entering Gaussian System, Link 0=g16
 Input=1propenol_tautts.com
 Output=1propenol_tautts.log
 Initial command:
 /usr/local//g16/l1.exe "/home/monty/scratch/Gau-265259.inp" -scrdir="/home/monty/scratch/"
 Entering Link 1 = /usr/local//g16/l1.exe PID=    265261.
  
 Copyright (c) 1988-2019, Gaussian, Inc.  All Rights Reserved.
  
 This is part of the Gaussian(R) 16 program.  It is based on
 the Gaussian(R) 09 system (copyright 2009, Gaussian, Inc.),
 the Gaussian(R) 03 system (copyright 2003, Gaussian, Inc.),
 the Gaussian(R) 98 system (copyright 1998, Gaussian, Inc.),
 the Gaussian(R) 94 system (copyright 1995, Gaussian, Inc.),
 the Gaussian 92(TM) system (copyright 1992, Gaussian, Inc.),
 the Gaussian 90(TM) system (copyright 1990, Gaussian, Inc.),
 the Gaussian 88(TM) system (copyright 1988, Gaussian, Inc.),
 the Gaussian 86(TM) system (copyright 1986, Carnegie Mellon
 University), and the Gaussian 82(TM) system (copyright 1983,
 Carnegie Mellon University). Gaussian is a federally registered
 trademark of Gaussian, Inc.
  
 This software contains proprietary and confidential information,
 including trade secrets, belonging to Gaussian, Inc.
  
 This software is provided under written license and may be
 used, copied, transmitted, or stored only in accord with that
 written license.
  
 The following legend is applicable only to US Government
 contracts under FAR:
  
                    RESTRICTED RIGHTS LEGEND
  
 Use, reproduction and disclosure by the US Government is
 subject to restrictions as set forth in subparagraphs (a)
 and (c) of the Commercial Computer Software - Restricted
 Rights clause in FAR 52.227-19.
  
 Gaussian, Inc.
 340 Quinnipiac St., Bldg. 40, Wallingford CT 06492
  
  
 ---------------------------------------------------------------
 Warning -- This program may not be used in any manner that
 competes with the business of Gaussian, Inc. or will provide
 assistance to any competitor of Gaussian, Inc.  The licensee
 of this program is prohibited from giving any competitor of
 Gaussian, Inc. access to this program.  By using this program,
 the user acknowledges that Gaussian, Inc. is engaged in the
 business of creating and licensing software in the field of
 computational chemistry and represents and warrants to the
 licensee that it is not a competitor of Gaussian, Inc. and that
 it will not use this program in any manner prohibited above.
 ---------------------------------------------------------------
  

 Cite this work as:
 Gaussian 16, Revision C.01,
 M. J. Frisch, G. W. Trucks, H. B. Schlegel, G. E. Scuseria, 
 M. A. Robb, J. R. Cheeseman, G. Scalmani, V. Barone, 
 G. A. Petersson, H. Nakatsuji, X. Li, M. Caricato, A. V. Marenich, 
 J. Bloino, B. G. Janesko, R. Gomperts, B. Mennucci, H. P. Hratchian, 
 J. V. Ortiz, A. F. Izmaylov, J. L. Sonnenberg, D. Williams-Young, 
 F. Ding, F. Lipparini, F. Egidi, J. Goings, B. Peng, A. Petrone, 
 T. Henderson, D. Ranasinghe, V. G. Zakrzewski, J. Gao, N. Rega, 
 G. Zheng, W. Liang, M. Hada, M. Ehara, K. Toyota, R. Fukuda, 
 J. Hasegawa, M. Ishida, T. Nakajima, Y. Honda, O. Kitao, H. Nakai, 
 T. Vreven, K. Throssell, J. A. Montgomery, Jr., J. E. Peralta, 
 F. Ogliaro, M. J. Bearpark, J. J. Heyd, E. N. Brothers, K. N. Kudin, 
 V. N. Staroverov, T. A. Keith, R. Kobayashi, J. Normand, 
 K. Raghavachari, A. P. Rendell, J. C. Burant, S. S. Iyengar, 
 J. Tomasi, M. Cossi, J. M. Millam, M. Klene, C. Adamo, R. Cammi, 
 J. W. Ochterski, R. L. Martin, K. Morokuma, O. Farkas, 
 J. B. Foresman, and D. J. Fox, Gaussian, Inc., Wallingford CT, 2019.
 
 ******************************************
 Gaussian 16:  ES64L-G16RevC.01  3-Jul-2019
                22-Mar-2026 
 ******************************************
 %mem=512MW
 %nprocshared=4
 Will use up to    4 processors via shared memory.
 ----------------------------------------------------------------------
 # opt=(calcfc,ts,noeigen) freq b97d3/def2tzvp/auto EmpiricalDispersion
 =GD3BJ
 ----------------------------------------------------------------------
 1/5=1,10=4,11=1,18=20,26=3,38=1/1,3;
 2/9=110,12=2,17=6,18=5,40=1/2;
 3/5=44,7=101,11=2,25=1,30=1,71=2,74=-59,82=28,124=41,140=1/1,2,3;
 4//1;
 5/5=2,38=5/2;
 8/6=4,10=90,11=11/1;
 11/6=1,8=1,9=11,15=111,16=1/1,2,10;
 10/6=1,13=1/2;
 6/7=2,8=2,9=2,10=2,28=1/1;
 7/10=1,25=1/1,2,3,16;
 1/5=1,10=4,11=1,18=20,26=3/3(2);
 2/9=110/2;
 99//99;
 2/9=110/2;
 3/5=44,7=101,11=2,25=1,30=1,71=1,74=-59,82=28,124=41/1,2,3;
 4/5=5,16=3,69=1/1;
 5/5=2,38=5/2;
 7//1,2,3,16;
 1/5=1,11=1,18=20,26=3/3(-5);
 2/9=110/2;
 6/7=2,8=2,9=2,10=2,19=2,28=1/1;
 99/9=1/99;
 -----------------------------------
 cis 1-propenol - propionaldehyde TS
 -----------------------------------
 Symbolic Z-matrix:
 Charge =  0 Multiplicity = 1
 C                     0.58994   0.67923  -0.00002 
 C                    -0.86181   0.56674   0.00007 
 H                     0.99282   1.68958   0.0003 
 H                    -1.50288   1.44779  -0.00021 
 C                     1.55664  -0.46644  -0.00007 
 H                     1.03832  -1.4286   -0.0004 
 H                     2.21181  -0.4313   -0.88115 
 H                     2.21127  -0.43223   0.88155 
 O                    -1.51439  -0.64786   0.00008 
 H                    -0.52484   0.47245   1.27405 
 
 Add virtual bond connecting atoms H10        and C2         Dist= 2.50D+00.

 GradGradGradGradGradGradGradGradGradGradGradGradGradGradGradGradGradGrad
 Berny optimization.
 Initialization pass.
                           ----------------------------
                           !    Initial Parameters    !
                           ! (Angstroms and Degrees)  !
 --------------------------                            --------------------------
 ! Name  Definition              Value          Derivative Info.                !
 --------------------------------------------------------------------------------
 ! R1    R(1,2)                  1.4561         calculate D2E/DX2 analytically  !
 ! R2    R(1,3)                  1.0877         calculate D2E/DX2 analytically  !
 ! R3    R(1,5)                  1.499          calculate D2E/DX2 analytically  !
 ! R4    R(2,4)                  1.0896         calculate D2E/DX2 analytically  !
 ! R5    R(2,9)                  1.3788         calculate D2E/DX2 analytically  !
 ! R6    R(2,10)                 1.3212         calculate D2E/DX2 analytically  !
 ! R7    R(5,6)                  1.0929         calculate D2E/DX2 analytically  !
 ! R8    R(5,7)                  1.0985         calculate D2E/DX2 analytically  !
 ! R9    R(5,8)                  1.0986         calculate D2E/DX2 analytically  !
 ! A1    A(2,1,3)              116.1705         calculate D2E/DX2 analytically  !
 ! A2    A(2,1,5)              125.7265         calculate D2E/DX2 analytically  !
 ! A3    A(3,1,5)              118.103          calculate D2E/DX2 analytically  !
 ! A4    A(1,2,4)              121.6095         calculate D2E/DX2 analytically  !
 ! A5    A(1,2,9)              122.6793         calculate D2E/DX2 analytically  !
 ! A6    A(1,2,10)              75.5984         calculate D2E/DX2 analytically  !
 ! A7    A(4,2,9)              115.7112         calculate D2E/DX2 analytically  !
 ! A8    A(4,2,10)             102.0066         calculate D2E/DX2 analytically  !
 ! A9    A(9,2,10)              93.3161         calculate D2E/DX2 analytically  !
 ! A10   A(1,5,6)              111.5319         calculate D2E/DX2 analytically  !
 ! A11   A(1,5,7)              111.1122         calculate D2E/DX2 analytically  !
 ! A12   A(1,5,8)              111.1275         calculate D2E/DX2 analytically  !
 ! A13   A(6,5,7)              108.1053         calculate D2E/DX2 analytically  !
 ! A14   A(6,5,8)              108.0743         calculate D2E/DX2 analytically  !
 ! A15   A(7,5,8)              106.6935         calculate D2E/DX2 analytically  !
 ! D1    D(3,1,2,4)              0.0404         calculate D2E/DX2 analytically  !
 ! D2    D(3,1,2,9)           -179.9817         calculate D2E/DX2 analytically  !
 ! D3    D(3,1,2,10)           -95.3622         calculate D2E/DX2 analytically  !
 ! D4    D(5,1,2,4)           -179.9801         calculate D2E/DX2 analytically  !
 ! D5    D(5,1,2,9)             -0.0023         calculate D2E/DX2 analytically  !
 ! D6    D(5,1,2,10)            84.6172         calculate D2E/DX2 analytically  !
 ! D7    D(2,1,5,6)              0.0209         calculate D2E/DX2 analytically  !
 ! D8    D(2,1,5,7)            120.7152         calculate D2E/DX2 analytically  !
 ! D9    D(2,1,5,8)           -120.6444         calculate D2E/DX2 analytically  !
 ! D10   D(3,1,5,6)            180.0            calculate D2E/DX2 analytically  !
 ! D11   D(3,1,5,7)            -59.3057         calculate D2E/DX2 analytically  !
 ! D12   D(3,1,5,8)             59.3347         calculate D2E/DX2 analytically  !
 --------------------------------------------------------------------------------
 Trust Radius=3.00D-01 FncErr=1.00D-07 GrdErr=1.00D-06 EigMax=2.50D+02 EigMin=1.00D-04
 Number of steps in this run=     46 maximum allowed number of steps=    100.
 Search for a saddle point of order  1.
 GradGradGradGradGradGradGradGradGradGradGradGradGradGradGradGradGradGrad

                          Input orientation:                          
 ---------------------------------------------------------------------
 Center     Atomic      Atomic             Coordinates (Angstroms)
 Number     Number       Type             X           Y           Z
 ---------------------------------------------------------------------
      1          6           0        0.589942    0.679226   -0.000018
      2          6           0       -0.861806    0.566737    0.000074
      3          1           0        0.992824    1.689581    0.000300
      4          1           0       -1.502877    1.447794   -0.000214
      5          6           0        1.556635   -0.466436   -0.000070
      6          1           0        1.038325   -1.428602   -0.000402
      7          1           0        2.211806   -0.431299   -0.881149
      8          1           0        2.211270   -0.432230    0.881551
      9          8           0       -1.514392   -0.647856    0.000078
     10          1           0       -0.524841    0.472449    1.274048
 ---------------------------------------------------------------------
                    Distance matrix (angstroms):
                    1          2          3          4          5
     1  C    0.000000
     2  C    1.456100   0.000000
     3  H    1.087718   2.168048   0.000000
     4  H    2.229482   1.089602   2.507386   0.000000
     5  C    1.499012   2.629887   2.228518   3.609002   0.000000
     6  H    2.154991   2.755336   3.118515   3.838146   1.092890
     7  H    2.154089   3.349585   2.600193   4.255104   1.098537
     8  H    2.154345   3.349438   2.600634   4.255219   1.098623
     9  O    2.487844   1.378806   3.427790   2.095682   3.076381
    10  H    1.705504   1.321154   2.325329   1.879255   2.614847
                    6          7          8          9         10
     6  H    0.000000
     7  H    1.774087   0.000000
     8  H    1.773809   1.762700   0.000000
     9  O    2.669444   3.835103   3.834586   0.000000
    10  H    2.771589   3.598732   2.908402   1.964000   0.000000
 Stoichiometry    C3H6O
 Framework group  C1[X(C3H6O)]
 Deg. of freedom    24
 Full point group                 C1      NOp   1
 Largest Abelian subgroup         C1      NOp   1
 Largest concise Abelian subgroup C1      NOp   1
                         Standard orientation:                         
 ---------------------------------------------------------------------
 Center     Atomic      Atomic             Coordinates (Angstroms)
 Number     Number       Type             X           Y           Z
 ---------------------------------------------------------------------
      1          6           0        0.568597    0.670556   -0.058784
      2          6           0       -0.878680    0.511053   -0.072024
      3          1           0        0.938927    1.692684   -0.094015
      4          1           0       -1.547531    1.370111   -0.115507
      5          6           0        1.571338   -0.442193   -0.001032
      6          1           0        1.084109   -1.419946    0.030835
      7          1           0        2.236951   -0.420767   -0.874693
      8          1           0        2.212516   -0.351792    0.886488
      9          8           0       -1.492038   -0.723145   -0.031353
     10          1           0       -0.556198    0.478372    1.208751
 ---------------------------------------------------------------------
 Rotational constants (GHZ):          17.1419216           5.2523196           4.2328107
 Standard basis: def2TZVP (5D, 7F)
 There are   180 symmetry adapted cartesian basis functions of A   symmetry.
 There are   160 symmetry adapted basis functions of A   symmetry.
   160 basis functions,   252 primitive gaussians,   180 cartesian basis functions
    16 alpha electrons       16 beta electrons
       nuclear repulsion energy       114.8887603912 Hartrees.
 NAtoms=   10 NActive=   10 NUniq=   10 SFac= 1.00D+00 NAtFMM=   60 NAOKFM=F Big=F
 Integral buffers will be    131072 words long.
 Raffenetti 2 integral format.
 Two-electron integral symmetry is turned on.
 Nuclear repulsion after empirical dispersion term =      114.8710551580 Hartrees.
 Standard density basis: Auto (5D, 7F)
   734 Density fitting functions
 There are   734 symmetry adapted density basis functions of A   symmetry.
 One-electron integrals computed using PRISM.
   1 Symmetry operations used in ECPInt.
 ECPInt:  NShTT=    2346 NPrTT=    6892 LenC2=    2335 LenP2D=    5922.
 LDataN:  DoStor=T MaxTD1= 6 Len=  172
 NBasis=   160 RedAO= T EigKep=  3.34D-04  NBF=   160
 NBsUse=   160 1.00D-06 EigRej= -1.00D+00 NBFU=   160
 NBasis=      160 NBas6D=      180 NTT=       12880   NTT6D=    16290
 NDBShl=      110 NDBF=        734 NDBF6D=      928  NNucDB=        0
 IDenFi=        2 ISolve=        0 FullAP=F BlkAPC=T NucTyp=        0
 TolInv= 1.00D-06 TolIt=  1.00D-10 IR12=0.
 FoFCou: FMM=F IPFlag=           0 FMFlag=           0 FMFlg1=           0
         NFxFlg=           0 DoJE=F BraDBF=T KetDBF=T FulRan=T
         wScrn=  0.000000 ICntrl=       600 IOpCl=  3 I1Cent=           6 NGrid=           0
         NMat0=    1 NMatS0=    928 NMatT0=    0 NMatD0=    1 NMtDS0=    0 NMtDT0=    0
 Petite list used in FoFCou.
 DBF EigKep=  2.07D-06 EigRej=  9.64D-07
 NDBF=    734  NBFD=   734
 NRank=   723 NBFDU=   723
 S*AI*S=  7.29886915771    
 ExpMin= 9.52D-02 ExpMax= 2.70D+04 ExpMxC= 9.22D+02 IAcc=3 IRadAn=         5 AccDes= 0.00D+00
 Harris functional with IExCor= 3630 and IRadAn=       5 diagonalized for initial guess.
 HarFok:  IExCor= 3630 AccDes= 0.00D+00 IRadAn=         5 IDoV= 1 UseB2=F ITyADJ=14
 ICtDFT=  3500011 ScaDFX=  1.000000  1.000000  1.000000  1.000000
 FoFCou: FMM=F IPFlag=           0 FMFlag=      100000 FMFlg1=           0
         NFxFlg=           0 DoJE=T BraDBF=F KetDBF=T FulRan=T
         wScrn=  0.000000 ICntrl=       500 IOpCl=  0 I1Cent=   200000004 NGrid=           0
         NMat0=    1 NMatS0=      1 NMatT0=    0 NMatD0=    1 NMtDS0=    0 NMtDT0=    0
 Petite list used in FoFCou.
 Requested convergence on RMS density matrix=1.00D-08 within 128 cycles.
 Requested convergence on MAX density matrix=1.00D-06.
 Requested convergence on             energy=1.00D-06.
 No special actions if energy rises.
 FoFCou: FMM=F IPFlag=           0 FMFlag=      100000 FMFlg1=           0
         NFxFlg=           0 DoJE=T BraDBF=T KetDBF=F FulRan=T
         wScrn=  0.000000 ICntrl=       500 IOpCl=  0 I1Cent=           5 NGrid=           0
         NMat0=    1 NMatS0=      1 NMatT0=    0 NMatD0=    1 NMtDS0=    0 NMtDT0=    0
 Symmetry not used in FoFCou.
 EnCoef did     4 forward-backward iterations
 EnCoef did     4 forward-backward iterations
 Initial convergence to 1.0D-05 achieved.  Increase integral accuracy.
 SCF Done:  E(RB97D3) =  -192.993489278     A.U. after   16 cycles
            NFock= 16  Conv=0.98D-08     -V/T= 2.0063
 DoSCS=F DFT=T ScalE2(SS,OS)=  1.000000  1.000000
 Range of M.O.s used for correlation:     1   160
 NBasis=   160 NAE=    16 NBE=    16 NFC=     0 NFV=     0
 NROrb=    160 NOA=    16 NOB=    16 NVA=   144 NVB=   144

 **** Warning!!: The largest alpha MO coefficient is  0.16891400D+02


 **** Warning!!: The smallest alpha delta epsilon is  0.77535795D-01

   1 Symmetry operations used in ECPInt.
 ECPInt:  NShTT=    2346 NPrTT=    6892 LenC2=    2335 LenP2D=    5922.
 LDataN:  DoStor=T MaxTD1= 7 Len=  274
 Symmetrizing basis deriv contribution to polar:
 IMax=3 JMax=2 DiffMx= 0.00D+00
 G2DrvN: will do    11 centers at a time, making    1 passes.
 Calling FoFCou, ICntrl=  3507 FMM=F I1Cent=   4 AccDes= 0.00D+00.
 G2DrvN: will do    11 centers at a time, making    1 passes.
 Calling FoFCou, ICntrl=  3507 FMM=F I1Cent=1004 AccDes= 0.00D+00.
 End of G2Drv F.D. properties file   721 does not exist.
 End of G2Drv F.D. properties file   722 does not exist.
 End of G2Drv F.D. properties file   788 does not exist.
          IDoAtm=1111111111
          Differentiating once with respect to nuclear coordinates.
 FoFCou: FMM=F IPFlag=           0 FMFlag=      100000 FMFlg1=           0
         NFxFlg=           0 DoJE=F BraDBF=T KetDBF=F FulRan=T
         wScrn=  0.000000 ICntrl=       500 IOpCl=  0 I1Cent=           5 NGrid=           0
         NMat0=   33 NMatS0=     33 NMatT0=    0 NMatD0=   33 NMtDS0=    0 NMtDT0=    0
 Integrals replicated using symmetry in FoFCou.
          There are    33 degrees of freedom in the 1st order CPHF.  IDoFFX=6 NUNeed=     0.
     27 vectors produced by pass  0 Test12= 6.98D-15 3.03D-09 XBig12= 3.23D-01 3.85D-01.
 AX will form    27 AO Fock derivatives at one time.
     27 vectors produced by pass  1 Test12= 6.98D-15 3.03D-09 XBig12= 7.37D-02 7.64D-02.
     27 vectors produced by pass  2 Test12= 6.98D-15 3.03D-09 XBig12= 2.57D-04 2.16D-03.
     27 vectors produced by pass  3 Test12= 6.98D-15 3.03D-09 XBig12= 1.05D-06 1.52D-04.
     27 vectors produced by pass  4 Test12= 6.98D-15 3.03D-09 XBig12= 3.77D-10 2.70D-06.
     10 vectors produced by pass  5 Test12= 6.98D-15 3.03D-09 XBig12= 1.46D-13 5.57D-08.
 InvSVY:  IOpt=1 It=  1 EMax= 1.11D-15
 Solved reduced A of dimension   145 with    27 vectors.
 End of Minotr F.D. properties file   721 does not exist.
 End of Minotr F.D. properties file   722 does not exist.
 End of Minotr F.D. properties file   788 does not exist.

 **********************************************************************

            Population analysis using the SCF Density.

 **********************************************************************

 Orbital symmetries:
       Occupied  (A) (A) (A) (A) (A) (A) (A) (A) (A) (A) (A) (A)
                 (A) (A) (A) (A)
       Virtual   (A) (A) (A) (A) (A) (A) (A) (A) (A) (A) (A) (A)
                 (A) (A) (A) (A) (A) (A) (A) (A) (A) (A) (A) (A)
                 (A) (A) (A) (A) (A) (A) (A) (A) (A) (A) (A) (A)
                 (A) (A) (A) (A) (A) (A) (A) (A) (A) (A) (A) (A)
                 (A) (A) (A) (A) (A) (A) (A) (A) (A) (A) (A) (A)
                 (A) (A) (A) (A) (A) (A) (A) (A) (A) (A) (A) (A)
                 (A) (A) (A) (A) (A) (A) (A) (A) (A) (A) (A) (A)
                 (A) (A) (A) (A) (A) (A) (A) (A) (A) (A) (A) (A)
                 (A) (A) (A) (A) (A) (A) (A) (A) (A) (A) (A) (A)
                 (A) (A) (A) (A) (A) (A) (A) (A) (A) (A) (A) (A)
                 (A) (A) (A) (A) (A) (A) (A) (A) (A) (A) (A) (A)
                 (A) (A) (A) (A) (A) (A) (A) (A) (A) (A) (A) (A)
 The electronic state is 1-A.
 Alpha  occ. eigenvalues --  -18.69465  -9.98934  -9.97044  -9.92256  -0.86333
 Alpha  occ. eigenvalues --   -0.73234  -0.64101  -0.51169  -0.45805  -0.41080
 Alpha  occ. eigenvalues --   -0.38157  -0.37109  -0.35065  -0.31917  -0.19779
 Alpha  occ. eigenvalues --   -0.18194
 Alpha virt. eigenvalues --   -0.10441  -0.01644   0.03139   0.04578   0.06940
 Alpha virt. eigenvalues --    0.07842   0.09366   0.12461   0.14259   0.17363
 Alpha virt. eigenvalues --    0.19211   0.19816   0.22322   0.24628   0.25817
 Alpha virt. eigenvalues --    0.27567   0.31559   0.31968   0.34072   0.36264
 Alpha virt. eigenvalues --    0.37222   0.38712   0.39945   0.40352   0.42876
 Alpha virt. eigenvalues --    0.44500   0.46391   0.50779   0.52695   0.57577
 Alpha virt. eigenvalues --    0.57844   0.61284   0.64771   0.73637   0.74952
 Alpha virt. eigenvalues --    0.81599   0.84473   0.86997   0.91211   0.94234
 Alpha virt. eigenvalues --    0.98994   0.99951   1.03920   1.07984   1.10138
 Alpha virt. eigenvalues --    1.10401   1.26136   1.30276   1.35140   1.39935
 Alpha virt. eigenvalues --    1.41901   1.44365   1.44614   1.47146   1.47644
 Alpha virt. eigenvalues --    1.49084   1.53744   1.58629   1.61261   1.62960
 Alpha virt. eigenvalues --    1.64782   1.71798   1.77758   1.80352   1.82536
 Alpha virt. eigenvalues --    1.89154   1.93464   1.98623   2.04246   2.08198
 Alpha virt. eigenvalues --    2.11017   2.15534   2.16301   2.21371   2.25125
 Alpha virt. eigenvalues --    2.26210   2.28339   2.36456   2.39148   2.40631
 Alpha virt. eigenvalues --    2.45765   2.46703   2.47881   2.51705   2.53106
 Alpha virt. eigenvalues --    2.59697   2.69286   2.70168   2.74564   2.76274
 Alpha virt. eigenvalues --    2.79527   2.83137   2.86474   2.94947   2.96702
 Alpha virt. eigenvalues --    2.98193   3.01038   3.01234   3.03332   3.06834
 Alpha virt. eigenvalues --    3.10615   3.13815   3.16004   3.20505   3.25635
 Alpha virt. eigenvalues --    3.28961   3.32649   3.37082   3.44832   3.48028
 Alpha virt. eigenvalues --    3.50340   3.56337   3.60314   3.69498   3.73860
 Alpha virt. eigenvalues --    3.79116   3.87797   3.89763   4.04388   4.14232
 Alpha virt. eigenvalues --    4.16857   4.22119   4.29916   4.40117   4.48846
 Alpha virt. eigenvalues --    4.58986   4.64741   4.82721   5.10223   5.11057
 Alpha virt. eigenvalues --    5.28370   5.36034   5.68061   5.88705   5.92957
 Alpha virt. eigenvalues --    6.23027   6.31064   6.67927   6.76018   6.84790
 Alpha virt. eigenvalues --   22.06022  22.11873  22.28493  43.52643
          Condensed to atoms (all electrons):
               1          2          3          4          5          6
     1  C    5.856546   0.021433   0.321960  -0.191779   0.233263  -0.060892
     2  C    0.021433   4.770909  -0.003012   0.437968   0.022990   0.012380
     3  H    0.321960  -0.003012   0.586581   0.006024  -0.055249   0.007670
     4  H   -0.191779   0.437968   0.006024   0.687092   0.013333   0.002913
     5  C    0.233263   0.022990  -0.055249   0.013333   4.958847   0.384941
     6  H   -0.060892   0.012380   0.007670   0.002913   0.384941   0.496960
     7  H   -0.028645   0.002020  -0.000378   0.000003   0.376211  -0.011925
     8  H   -0.042115   0.006682  -0.000364   0.000293   0.402586  -0.020137
     9  O   -0.167391   0.595241   0.007399  -0.058818  -0.002638   0.026608
    10  H    0.150601   0.151953   0.003549  -0.010692  -0.035739   0.003845
               7          8          9         10
     1  C   -0.028645  -0.042115  -0.167391   0.150601
     2  C    0.002020   0.006682   0.595241   0.151953
     3  H   -0.000378  -0.000364   0.007399   0.003549
     4  H    0.000003   0.000293  -0.058818  -0.010692
     5  C    0.376211   0.402586  -0.002638  -0.035739
     6  H   -0.011925  -0.020137   0.026608   0.003845
     7  H    0.553962  -0.023972   0.001430   0.002476
     8  H   -0.023972   0.554697   0.001070  -0.004909
     9  O    0.001430   0.001070   8.090404  -0.024515
    10  H    0.002476  -0.004909  -0.024515   0.536664
 Mulliken charges:
               1
     1  C   -0.092981
     2  C   -0.018563
     3  H    0.125821
     4  H    0.113664
     5  C   -0.298543
     6  H    0.157637
     7  H    0.128819
     8  H    0.126169
     9  O   -0.468790
    10  H    0.226768
 Sum of Mulliken charges =  -0.00000
 Mulliken charges with hydrogens summed into heavy atoms:
               1
     1  C    0.032840
     2  C    0.321869
     5  C    0.114081
     9  O   -0.468790
 APT charges:
               1
     1  C   -0.259204
     2  C   -0.690517
     3  H    0.403616
     4  H    0.429633
     5  C   -1.000740
     6  H    0.252075
     7  H    0.439383
     8  H    0.421002
     9  O   -0.342407
    10  H    0.347158
 Sum of APT charges =  -0.00000
 APT charges with hydrogens summed into heavy atoms:
               1
     1  C    0.144412
     2  C    0.086274
     5  C    0.111721
     9  O   -0.342407
 Electronic spatial extent (au):  <R**2>=            321.8286
 Charge=             -0.0000 electrons
 Dipole moment (field-independent basis, Debye):
    X=              3.3333    Y=              2.8191    Z=              0.6534  Tot=              4.4142
 Quadrupole moment (field-independent basis, Debye-Ang):
   XX=            -28.1423   YY=            -25.5262   ZZ=            -24.4307
   XY=             -4.2629   XZ=             -0.8079   YZ=             -0.0185
 Traceless Quadrupole moment (field-independent basis, Debye-Ang):
   XX=             -2.1092   YY=              0.5068   ZZ=              1.6024
   XY=             -4.2629   XZ=             -0.8079   YZ=             -0.0185
 Octapole moment (field-independent basis, Debye-Ang**2):
  XXX=              8.3510  YYY=              0.6216  ZZZ=              1.5122  XYY=              0.8393
  XXY=              5.5049  XXZ=             -0.4249  XZZ=             -0.8261  YZZ=             -0.6352
  YYZ=             -0.4647  XYZ=             -0.1976
 Hexadecapole moment (field-independent basis, Debye-Ang**3):
 XXXX=           -288.9575 YYYY=           -100.7937 ZZZZ=            -37.1611 XXXY=             -9.3418
 XXXZ=             -0.7509 YYYX=              1.0278 YYYZ=             -1.0939 ZZZX=             -1.6694
 ZZZY=              0.3282 XXYY=            -64.1039 XXZZ=            -49.9919 YYZZ=            -25.6601
 XXYZ=             -0.2330 YYXZ=             -0.3286 ZZXY=             -0.5333
 N-N= 1.148710551580D+02 E-N=-6.804438029784D+02  KE= 1.917849314539D+02
  Exact polarizability:       0.000       0.000       0.000       0.000       0.000       0.000
 Approx polarizability:     161.428      48.203      95.808     -11.497      -3.176      65.674
   1 Symmetry operations used in ECPInt.
 ECPInt:  NShTT=    2346 NPrTT=    6892 LenC2=    2335 LenP2D=    5922.
 LDataN:  DoStor=T MaxTD1= 8 Len=  415
 Calling FoFJK, ICntrl=    100527 FMM=F ISym2X=0 I1Cent= 4 IOpClX= 0 NMat=1 NMatS=1 NMatT=0.
 ***** Axes restored to original set *****
 -------------------------------------------------------------------
 Center     Atomic                   Forces (Hartrees/Bohr)
 Number     Number              X              Y              Z
 -------------------------------------------------------------------
      1        6          -0.012531791    0.001669435    0.015187737
      2        6          -0.029863707   -0.097642968    0.028450016
      3        1           0.000077673    0.002457521    0.004243388
      4        1           0.002620779    0.011507400   -0.007357464
      5        6          -0.008051772   -0.000805277    0.002588952
      6        1          -0.002817981    0.001304767   -0.000810933
      7        1          -0.001017133    0.002914349   -0.000762952
      8        1           0.000763697    0.001829236   -0.001324314
      9        8           0.030216854    0.064728609   -0.008530216
     10        1           0.020603380    0.012036927   -0.031684214
 -------------------------------------------------------------------
 Cartesian Forces:  Max     0.097642968 RMS     0.024960325
 FormGI is forming the generalized inverse of G from B-inverse, IUseBI=4.

 GradGradGradGradGradGradGradGradGradGradGradGradGradGradGradGradGradGrad
 Berny optimization.
 Internal  Forces:  Max     0.071320941 RMS     0.017067959
 Search for a saddle point.
 Step number   1 out of a maximum of   46
 All quantities printed in internal units (Hartrees-Bohrs-Radians)
 Swapping is turned off.
 Second derivative matrix not updated -- analytic derivatives used.
 ITU=  0
     Eigenvalues ---   -0.14919   0.00066   0.01205   0.01683   0.02731
     Eigenvalues ---    0.04951   0.05168   0.05501   0.09561   0.10056
     Eigenvalues ---    0.10186   0.11231   0.12670   0.13176   0.16384
     Eigenvalues ---    0.19526   0.28266   0.29976   0.31701   0.32456
     Eigenvalues ---    0.33032   0.33783   0.34554   0.36772
 Eigenvectors required to have negative eigenvalues:
                          A6        A9        R6        R5        A8
   1                    0.74016  -0.39062  -0.35949   0.23812  -0.16962
                          D1        D4        D5        D6        D2
   1                    0.15269   0.12491  -0.10916  -0.10515  -0.08138
 RFO step:  Lambda0=2.040948071D-02 Lambda=-3.63549607D-02.
 Linear search not attempted -- option 19 set.
 Maximum step size (   0.300) exceeded in Quadratic search.
    -- Step size scaled by   0.553
 Iteration  1 RMS(Cart)=  0.04635360 RMS(Int)=  0.01032996
 Iteration  2 RMS(Cart)=  0.00965671 RMS(Int)=  0.00128540
 Iteration  3 RMS(Cart)=  0.00007123 RMS(Int)=  0.00128459
 Iteration  4 RMS(Cart)=  0.00000023 RMS(Int)=  0.00128459
 Variable       Old X    -DE/DX   Delta X   Delta X   Delta X     New X
                                 (Linear)    (Quad)   (Total)
    R1        2.75163  -0.02278   0.00000  -0.02436  -0.02436   2.72727
    R2        2.05549   0.00231   0.00000   0.00206   0.00206   2.05755
    R3        2.83272  -0.01118   0.00000  -0.02500  -0.02500   2.80772
    R4        2.05905   0.00776   0.00000   0.02005   0.02005   2.07911
    R5        2.60556  -0.07132   0.00000  -0.06858  -0.06858   2.53698
    R6        2.49662  -0.02616   0.00000  -0.25161  -0.25161   2.24501
    R7        2.06526   0.00019   0.00000   0.00046   0.00046   2.06572
    R8        2.07593   0.00010   0.00000   0.00252   0.00252   2.07845
    R9        2.07610  -0.00055   0.00000   0.00115   0.00115   2.07725
    A1        2.02756   0.00385   0.00000   0.00541   0.00521   2.03277
    A2        2.19434  -0.00943   0.00000  -0.02547  -0.02567   2.16867
    A3        2.06129   0.00558   0.00000   0.02004   0.01983   2.08112
    A4        2.12249  -0.01507   0.00000  -0.06059  -0.06328   2.05921
    A5        2.14116   0.00896   0.00000   0.04493   0.04272   2.18388
    A6        1.31944  -0.04759   0.00000   0.11163   0.11197   1.43141
    A7        2.01954   0.00611   0.00000   0.01561   0.01307   2.03262
    A8        1.78035   0.01710   0.00000  -0.00048   0.00324   1.78359
    A9        1.62867   0.02944   0.00000  -0.00114  -0.00349   1.62518
   A10        1.94660  -0.00310   0.00000  -0.00814  -0.00820   1.93840
   A11        1.93927  -0.00427   0.00000  -0.01477  -0.01481   1.92447
   A12        1.93954   0.00061   0.00000   0.01107   0.01107   1.95062
   A13        1.88679   0.00312   0.00000   0.00587   0.00577   1.89256
   A14        1.88625   0.00303   0.00000   0.01242   0.01241   1.89866
   A15        1.86215   0.00104   0.00000  -0.00575  -0.00572   1.85643
    D1        0.00071  -0.00057   0.00000   0.10673   0.10487   0.10557
    D2       -3.14127   0.00277   0.00000  -0.03000  -0.03090   3.11102
    D3       -1.66438   0.00431   0.00000   0.02891   0.03142  -1.63296
    D4       -3.14125  -0.00089   0.00000   0.06828   0.06658  -3.07467
    D5       -0.00004   0.00245   0.00000  -0.06846  -0.06919  -0.06923
    D6        1.47685   0.00399   0.00000  -0.00954  -0.00687   1.46998
    D7        0.00037   0.00098   0.00000   0.02724   0.02728   0.02765
    D8        2.10688  -0.00011   0.00000   0.01899   0.01912   2.12600
    D9       -2.10564  -0.00118   0.00000   0.00937   0.00943  -2.09621
   D10        3.14159   0.00065   0.00000  -0.01189  -0.01200   3.12959
   D11       -1.03508  -0.00043   0.00000  -0.02014  -0.02017  -1.05525
   D12        1.03559  -0.00151   0.00000  -0.02976  -0.02985   1.00573
         Item               Value     Threshold  Converged?
 Maximum Force            0.071321     0.000450     NO 
 RMS     Force            0.017068     0.000300     NO 
 Maximum Displacement     0.183240     0.001800     NO 
 RMS     Displacement     0.049013     0.001200     NO 
 Predicted change in Energy=-7.423823D-03
 GradGradGradGradGradGradGradGradGradGradGradGradGradGradGradGradGradGrad

                          Input orientation:                          
 ---------------------------------------------------------------------
 Center     Atomic      Atomic             Coordinates (Angstroms)
 Number     Number       Type             X           Y           Z
 ---------------------------------------------------------------------
      1          6           0        0.601266    0.677179    0.005130
      2          6           0       -0.834121    0.534947    0.053019
      3          1           0        0.988462    1.694812    0.007789
      4          1           0       -1.445782    1.447038   -0.013561
      5          6           0        1.554912   -0.462160    0.001174
      6          1           0        1.024877   -1.418145    0.011039
      7          1           0        2.188858   -0.425182   -0.896856
      8          1           0        2.236295   -0.426288    0.862997
      9          8           0       -1.496076   -0.632664    0.023981
     10          1           0       -0.621807    0.459826    1.219484
 ---------------------------------------------------------------------
                    Distance matrix (angstroms):
                    1          2          3          4          5
     1  C    0.000000
     2  C    1.443211   0.000000
     3  H    1.088809   2.160820   0.000000
     4  H    2.187108   1.100215   2.446916   0.000000
     5  C    1.485782   2.589283   2.230120   3.556602   0.000000
     6  H    2.137724   2.696702   3.113172   3.783390   1.093134
     7  H    2.132891   3.310968   2.598789   4.182826   1.099870
     8  H    2.151022   3.317754   2.605290   4.223198   1.099231
     9  O    2.472830   1.342514   3.404458   2.080649   3.055833
    10  H    1.737183   1.188007   2.363549   1.781551   2.659406
                    6          7          8          9         10
     6  H    0.000000
     7  H    1.779073   0.000000
     8  H    1.782455   1.760493   0.000000
     9  O    2.640521   3.803910   3.831074   0.000000
    10  H    2.774650   3.627943   3.013475   1.840409   0.000000
 Stoichiometry    C3H6O
 Framework group  C1[X(C3H6O)]
 Deg. of freedom    24
 Full point group                 C1      NOp   1
 Largest Abelian subgroup         C1      NOp   1
 Largest concise Abelian subgroup C1      NOp   1
                         Standard orientation:                         
 ---------------------------------------------------------------------
 Center     Atomic      Atomic             Coordinates (Angstroms)
 Number     Number       Type             X           Y           Z
 ---------------------------------------------------------------------
      1          6           0        0.573175    0.667665   -0.060887
      2          6           0       -0.858373    0.485425   -0.043099
      3          1           0        0.931220    1.695514   -0.089831
      4          1           0       -1.493651    1.375815   -0.161845
      5          6           0        1.558456   -0.442474    0.005149
      6          1           0        1.055607   -1.412439    0.040539
      7          1           0        2.214332   -0.422702   -0.877545
      8          1           0        2.215818   -0.352358    0.881542
      9          8           0       -1.486041   -0.701324   -0.041278
     10          1           0       -0.674546    0.463058    1.130386
 ---------------------------------------------------------------------
 Rotational constants (GHZ):          17.7733866           5.3350895           4.3104847
 Standard basis: def2TZVP (5D, 7F)
 There are   180 symmetry adapted cartesian basis functions of A   symmetry.
 There are   160 symmetry adapted basis functions of A   symmetry.
   160 basis functions,   252 primitive gaussians,   180 cartesian basis functions
    16 alpha electrons       16 beta electrons
       nuclear repulsion energy       116.3522662710 Hartrees.
 NAtoms=   10 NActive=   10 NUniq=   10 SFac= 1.00D+00 NAtFMM=   60 NAOKFM=F Big=F
 Integral buffers will be    131072 words long.
 Raffenetti 2 integral format.
 Two-electron integral symmetry is turned on.
 Nuclear repulsion after empirical dispersion term =      116.3345715959 Hartrees.
 Standard density basis: Auto (5D, 7F)
   734 Density fitting functions
 There are   734 symmetry adapted density basis functions of A   symmetry.
 One-electron integrals computed using PRISM.
   1 Symmetry operations used in ECPInt.
 ECPInt:  NShTT=    2346 NPrTT=    6892 LenC2=    2337 LenP2D=    5933.
 LDataN:  DoStor=T MaxTD1= 6 Len=  172
 NBasis=   160 RedAO= T EigKep=  3.01D-04  NBF=   160
 NBsUse=   160 1.00D-06 EigRej= -1.00D+00 NBFU=   160
 NBasis=      160 NBas6D=      180 NTT=       12880   NTT6D=    16290
 NDBShl=      110 NDBF=        734 NDBF6D=      928  NNucDB=        0
 IDenFi=        2 ISolve=        0 FullAP=F BlkAPC=T NucTyp=        0
 TolInv= 1.00D-06 TolIt=  1.00D-10 IR12=0.
 FoFCou: FMM=F IPFlag=           0 FMFlag=           0 FMFlg1=           0
         NFxFlg=           0 DoJE=F BraDBF=T KetDBF=T FulRan=T
         wScrn=  0.000000 ICntrl=       600 IOpCl=  3 I1Cent=           6 NGrid=           0
         NMat0=    1 NMatS0=    928 NMatT0=    0 NMatD0=    1 NMtDS0=    0 NMtDT0=    0
 Petite list used in FoFCou.
 DBF EigKep=  1.74D-06 EigRej=  9.17D-07
 NDBF=    734  NBFD=   734
 NRank=   723 NBFDU=   723
 S*AI*S=  7.28823145283    
 Initial guess from the checkpoint file:  "/home/monty/scratch/Gau-265261.chk"
 B after Tr=    -0.000000    0.000000   -0.000000
         Rot=    0.999995   -0.000709    0.002373    0.001897 Ang=  -0.36 deg.
 Recovered     1 saved fitting vectors from chk file.
 ExpMin= 9.52D-02 ExpMax= 2.70D+04 ExpMxC= 9.22D+02 IAcc=3 IRadAn=         5 AccDes= 0.00D+00
 Harris functional with IExCor= 3630 and IRadAn=       5 diagonalized for initial guess.
 HarFok:  IExCor= 3630 AccDes= 0.00D+00 IRadAn=         5 IDoV= 1 UseB2=F ITyADJ=14
 ICtDFT=  3500011 ScaDFX=  1.000000  1.000000  1.000000  1.000000
 FoFCou: FMM=F IPFlag=           0 FMFlag=      100000 FMFlg1=           0
         NFxFlg=           0 DoJE=T BraDBF=F KetDBF=T FulRan=T
         wScrn=  0.000000 ICntrl=       500 IOpCl=  0 I1Cent=   200000004 NGrid=           0
         NMat0=    1 NMatS0=      1 NMatT0=    0 NMatD0=    1 NMtDS0=    0 NMtDT0=    0
 Petite list used in FoFCou.
 Requested convergence on RMS density matrix=1.00D-08 within 128 cycles.
 Requested convergence on MAX density matrix=1.00D-06.
 Requested convergence on             energy=1.00D-06.
 No special actions if energy rises.
 FoFCou: FMM=F IPFlag=           0 FMFlag=      100000 FMFlg1=           0
         NFxFlg=           0 DoJE=T BraDBF=T KetDBF=F FulRan=T
         wScrn=  0.000000 ICntrl=       500 IOpCl=  0 I1Cent=           5 NGrid=           0
         NMat0=    1 NMatS0=      1 NMatT0=    0 NMatD0=    1 NMtDS0=    0 NMtDT0=    0
 Symmetry not used in FoFCou.
 Initial convergence to 1.0D-05 achieved.  Increase integral accuracy.
 SCF Done:  E(RB97D3) =  -192.999328785     A.U. after   14 cycles
            NFock= 14  Conv=0.53D-08     -V/T= 2.0052
   1 Symmetry operations used in ECPInt.
 ECPInt:  NShTT=    2346 NPrTT=    6892 LenC2=    2337 LenP2D=    5933.
 LDataN:  DoStor=T MaxTD1= 7 Len=  274
 Calling FoFJK, ICntrl=      2527 FMM=F ISym2X=0 I1Cent= 4 IOpClX= 0 NMat=1 NMatS=1 NMatT=0.
 ***** Axes restored to original set *****
 -------------------------------------------------------------------
 Center     Atomic                   Forces (Hartrees/Bohr)
 Number     Number              X              Y              Z
 -------------------------------------------------------------------
      1        6          -0.005367522    0.001715623    0.005084830
      2        6          -0.026815062   -0.051407568    0.006387587
      3        1          -0.000006725    0.001207447    0.004871240
      4        1           0.002438395    0.007068624   -0.006341149
      5        6          -0.003787373   -0.001345733    0.002426450
      6        1          -0.001554058    0.000759930   -0.000676030
      7        1          -0.000495141    0.001508742   -0.000433010
      8        1           0.000669735    0.001118703   -0.001044444
      9        8           0.015772298    0.030489415   -0.006124916
     10        1           0.019145453    0.008884816   -0.004150557
 -------------------------------------------------------------------
 Cartesian Forces:  Max     0.051407568 RMS     0.013280432

 GradGradGradGradGradGradGradGradGradGradGradGradGradGradGradGradGradGrad
 Berny optimization.
 FormGI is forming the generalized inverse of G from B-inverse, IUseBI=4.
 Internal  Forces:  Max     0.034161478 RMS     0.009007000
 Search for a saddle point.
 Step number   2 out of a maximum of   46
 All quantities printed in internal units (Hartrees-Bohrs-Radians)
 Swapping is turned off.
 Update second derivatives using D2CorX and points    1    2
 ITU=  0  0
     Eigenvalues ---   -0.13209   0.00066   0.01119   0.01671   0.02653
     Eigenvalues ---    0.04861   0.05171   0.05502   0.09665   0.10110
     Eigenvalues ---    0.11172   0.12528   0.13062   0.13525   0.16381
     Eigenvalues ---    0.19567   0.28447   0.30148   0.31701   0.32455
     Eigenvalues ---    0.33023   0.33788   0.34565   0.36991
 Eigenvectors required to have negative eigenvalues:
                          A6        A9        R6        R5        A8
   1                   -0.76203   0.41484   0.26952  -0.25870   0.15460
                          D1        D4        D5        D6        D2
   1                   -0.14820  -0.12247   0.11764   0.09301   0.09192
 RFO step:  Lambda0=1.216697511D-02 Lambda=-9.77161513D-03.
 Linear search not attempted -- option 19 set.
 Maximum step size (   0.300) exceeded in Quadratic search.
    -- Step size scaled by   0.928
 Iteration  1 RMS(Cart)=  0.06853567 RMS(Int)=  0.01343118
 Iteration  2 RMS(Cart)=  0.01172104 RMS(Int)=  0.00450560
 Iteration  3 RMS(Cart)=  0.00025476 RMS(Int)=  0.00450093
 Iteration  4 RMS(Cart)=  0.00000188 RMS(Int)=  0.00450093
 Iteration  5 RMS(Cart)=  0.00000002 RMS(Int)=  0.00450093
 Variable       Old X    -DE/DX   Delta X   Delta X   Delta X     New X
                                 (Linear)    (Quad)   (Total)
    R1        2.72727  -0.01033   0.00000  -0.00204  -0.00204   2.72523
    R2        2.05755   0.00114   0.00000   0.00276   0.00276   2.06031
    R3        2.80772  -0.00488   0.00000  -0.03193  -0.03193   2.77579
    R4        2.07911   0.00489   0.00000   0.02360   0.02360   2.10270
    R5        2.53698  -0.03416   0.00000  -0.03777  -0.03777   2.49921
    R6        2.24501  -0.00121   0.00000  -0.13513  -0.13513   2.10988
    R7        2.06572   0.00008   0.00000   0.00007   0.00007   2.06580
    R8        2.07845   0.00012   0.00000   0.00554   0.00554   2.08399
    R9        2.07725  -0.00037   0.00000   0.00184   0.00184   2.07908
    A1        2.03277   0.00173   0.00000   0.00629   0.00396   2.03673
    A2        2.16867  -0.00470   0.00000  -0.02872  -0.03110   2.13757
    A3        2.08112   0.00293   0.00000   0.01822   0.01576   2.09687
    A4        2.05921  -0.00908   0.00000  -0.08435  -0.09552   1.96369
    A5        2.18388   0.00435   0.00000   0.03818   0.02493   2.20881
    A6        1.43141  -0.02959   0.00000   0.23494   0.23511   1.66652
    A7        2.03262   0.00468   0.00000   0.01218  -0.00158   2.03104
    A8        1.78359   0.01039   0.00000  -0.00364   0.00423   1.78782
    A9        1.62518   0.02010   0.00000   0.02119   0.01609   1.64127
   A10        1.93840  -0.00174   0.00000  -0.00806  -0.00818   1.93022
   A11        1.92447  -0.00236   0.00000  -0.01755  -0.01761   1.90685
   A12        1.95062   0.00054   0.00000   0.01264   0.01259   1.96321
   A13        1.89256   0.00155   0.00000   0.00517   0.00504   1.89760
   A14        1.89866   0.00185   0.00000   0.02408   0.02399   1.92266
   A15        1.85643   0.00034   0.00000  -0.01624  -0.01624   1.84019
    D1        0.10557   0.00133   0.00000   0.26893   0.26266   0.36823
    D2        3.11102   0.00119   0.00000  -0.03873  -0.03863   3.07238
    D3       -1.63296   0.00431   0.00000   0.14761   0.15290  -1.48006
    D4       -3.07467   0.00035   0.00000   0.14105   0.13537  -2.93929
    D5       -0.06923   0.00021   0.00000  -0.16661  -0.16591  -0.23514
    D6        1.46998   0.00334   0.00000   0.01973   0.02561   1.49560
    D7        0.02765   0.00108   0.00000   0.07103   0.07119   0.09884
    D8        2.12600   0.00033   0.00000   0.06067   0.06090   2.18690
    D9       -2.09621  -0.00044   0.00000   0.03698   0.03712  -2.05909
   D10        3.12959   0.00004   0.00000  -0.06044  -0.06064   3.06895
   D11       -1.05525  -0.00071   0.00000  -0.07080  -0.07093  -1.12617
   D12        1.00573  -0.00148   0.00000  -0.09449  -0.09470   0.91103
         Item               Value     Threshold  Converged?
 Maximum Force            0.034161     0.000450     NO 
 RMS     Force            0.009007     0.000300     NO 
 Maximum Displacement     0.325262     0.001800     NO 
 RMS     Displacement     0.077098     0.001200     NO 
 Predicted change in Energy= 7.369083D-04
 GradGradGradGradGradGradGradGradGradGradGradGradGradGradGradGradGradGrad

                          Input orientation:                          
 ---------------------------------------------------------------------
 Center     Atomic      Atomic             Coordinates (Angstroms)
 Number     Number       Type             X           Y           Z
 ---------------------------------------------------------------------
      1          6           0        0.622035    0.673272   -0.007636
      2          6           0       -0.802284    0.501170    0.138784
      3          1           0        0.999743    1.694772    0.042963
      4          1           0       -1.369141    1.432063   -0.085305
      5          6           0        1.557089   -0.459550   -0.011070
      6          1           0        1.012851   -1.407409    0.008811
      7          1           0        2.170025   -0.422399   -0.927092
      8          1           0        2.273638   -0.416175    0.822672
      9          8           0       -1.473143   -0.634015    0.036902
     10          1           0       -0.793929    0.487635    1.255169
 ---------------------------------------------------------------------
                    Distance matrix (angstroms):
                    1          2          3          4          5
     1  C    0.000000
     2  C    1.442131   0.000000
     3  H    1.090270   2.163602   0.000000
     4  H    2.132270   1.112701   2.386856   0.000000
     5  C    1.468885   2.551878   2.225906   3.485188   0.000000
     6  H    2.117130   2.637098   3.102397   3.707471   1.093172
     7  H    2.107645   3.289938   2.606335   4.083299   1.102800
     8  H    2.145716   3.281847   2.585895   4.184524   1.100204
     9  O    2.469970   1.322526   3.396830   2.072300   3.035629
    10  H    1.906329   1.116498   2.478686   1.737724   2.833338
                    6          7          8          9         10
     6  H    0.000000
     7  H    1.784716   0.000000
     8  H    1.798471   1.752840   0.000000
     9  O    2.603670   3.774485   3.834482   0.000000
    10  H    2.899837   3.791497   3.227056   1.789861   0.000000
 Stoichiometry    C3H6O
 Framework group  C1[X(C3H6O)]
 Deg. of freedom    24
 Full point group                 C1      NOp   1
 Largest Abelian subgroup         C1      NOp   1
 Largest concise Abelian subgroup C1      NOp   1
                         Standard orientation:                         
 ---------------------------------------------------------------------
 Center     Atomic      Atomic             Coordinates (Angstroms)
 Number     Number       Type             X           Y           Z
 ---------------------------------------------------------------------
      1          6           0        0.587846    0.662822   -0.084920
      2          6           0       -0.838046    0.467749    0.007393
      3          1           0        0.942778    1.693663   -0.076111
      4          1           0       -1.412145    1.371757   -0.294735
      5          6           0        1.544063   -0.447412    0.018290
      6          1           0        1.018138   -1.404463    0.068123
      7          1           0        2.197488   -0.448368   -0.870081
      8          1           0        2.220667   -0.341277    0.879331
      9          8           0       -1.481189   -0.685948   -0.059136
     10          1           0       -0.880594    0.517322    1.121979
 ---------------------------------------------------------------------
 Rotational constants (GHZ):          18.0648791           5.3860830           4.3671441
 Standard basis: def2TZVP (5D, 7F)
 There are   180 symmetry adapted cartesian basis functions of A   symmetry.
 There are   160 symmetry adapted basis functions of A   symmetry.
   160 basis functions,   252 primitive gaussians,   180 cartesian basis functions
    16 alpha electrons       16 beta electrons
       nuclear repulsion energy       117.0843945169 Hartrees.
 NAtoms=   10 NActive=   10 NUniq=   10 SFac= 1.00D+00 NAtFMM=   60 NAOKFM=F Big=F
 Integral buffers will be    131072 words long.
 Raffenetti 2 integral format.
 Two-electron integral symmetry is turned on.
 Nuclear repulsion after empirical dispersion term =      117.0667170592 Hartrees.
 Standard density basis: Auto (5D, 7F)
   734 Density fitting functions
 There are   734 symmetry adapted density basis functions of A   symmetry.
 One-electron integrals computed using PRISM.
   1 Symmetry operations used in ECPInt.
 ECPInt:  NShTT=    2346 NPrTT=    6892 LenC2=    2337 LenP2D=    5942.
 LDataN:  DoStor=T MaxTD1= 6 Len=  172
 NBasis=   160 RedAO= T EigKep=  2.87D-04  NBF=   160
 NBsUse=   160 1.00D-06 EigRej= -1.00D+00 NBFU=   160
 NBasis=      160 NBas6D=      180 NTT=       12880   NTT6D=    16290
 NDBShl=      110 NDBF=        734 NDBF6D=      928  NNucDB=        0
 IDenFi=        2 ISolve=        0 FullAP=F BlkAPC=T NucTyp=        0
 TolInv= 1.00D-06 TolIt=  1.00D-10 IR12=0.
 FoFCou: FMM=F IPFlag=           0 FMFlag=           0 FMFlg1=           0
         NFxFlg=           0 DoJE=F BraDBF=T KetDBF=T FulRan=T
         wScrn=  0.000000 ICntrl=       600 IOpCl=  3 I1Cent=           6 NGrid=           0
         NMat0=    1 NMatS0=    928 NMatT0=    0 NMatD0=    1 NMtDS0=    0 NMtDT0=    0
 Petite list used in FoFCou.
 DBF EigKep=  1.43D-06 EigRej=  9.16D-07
 NDBF=    734  NBFD=   734
 NRank=   723 NBFDU=   723
 S*AI*S=  7.29025799731    
 Initial guess from the checkpoint file:  "/home/monty/scratch/Gau-265261.chk"
 B after Tr=     0.000000    0.000000    0.000000
         Rot=    0.999974    0.004794    0.004418    0.003140 Ang=   0.83 deg.
 Recovered     1 saved fitting vectors from chk file.
 ExpMin= 9.52D-02 ExpMax= 2.70D+04 ExpMxC= 9.22D+02 IAcc=3 IRadAn=         5 AccDes= 0.00D+00
 Harris functional with IExCor= 3630 and IRadAn=       5 diagonalized for initial guess.
 HarFok:  IExCor= 3630 AccDes= 0.00D+00 IRadAn=         5 IDoV= 1 UseB2=F ITyADJ=14
 ICtDFT=  3500011 ScaDFX=  1.000000  1.000000  1.000000  1.000000
 FoFCou: FMM=F IPFlag=           0 FMFlag=      100000 FMFlg1=           0
         NFxFlg=           0 DoJE=T BraDBF=F KetDBF=T FulRan=T
         wScrn=  0.000000 ICntrl=       500 IOpCl=  0 I1Cent=   200000004 NGrid=           0
         NMat0=    1 NMatS0=      1 NMatT0=    0 NMatD0=    1 NMtDS0=    0 NMtDT0=    0
 Petite list used in FoFCou.
 Requested convergence on RMS density matrix=1.00D-08 within 128 cycles.
 Requested convergence on MAX density matrix=1.00D-06.
 Requested convergence on             energy=1.00D-06.
 No special actions if energy rises.
 FoFCou: FMM=F IPFlag=           0 FMFlag=      100000 FMFlg1=           0
         NFxFlg=           0 DoJE=T BraDBF=T KetDBF=F FulRan=T
         wScrn=  0.000000 ICntrl=       500 IOpCl=  0 I1Cent=           5 NGrid=           0
         NMat0=    1 NMatS0=      1 NMatT0=    0 NMatD0=    1 NMtDS0=    0 NMtDT0=    0
 Symmetry not used in FoFCou.
 Initial convergence to 1.0D-05 achieved.  Increase integral accuracy.
 SCF Done:  E(RB97D3) =  -192.994975096     A.U. after   15 cycles
            NFock= 15  Conv=0.45D-08     -V/T= 2.0044
   1 Symmetry operations used in ECPInt.
 ECPInt:  NShTT=    2346 NPrTT=    6892 LenC2=    2337 LenP2D=    5942.
 LDataN:  DoStor=T MaxTD1= 7 Len=  274
 Calling FoFJK, ICntrl=      2527 FMM=F ISym2X=0 I1Cent= 4 IOpClX= 0 NMat=1 NMatS=1 NMatT=0.
 ***** Axes restored to original set *****
 -------------------------------------------------------------------
 Center     Atomic                   Forces (Hartrees/Bohr)
 Number     Number              X              Y              Z
 -------------------------------------------------------------------
      1        6          -0.001853880    0.001589952    0.012448158
      2        6          -0.019068149   -0.013909121   -0.023839183
      3        1           0.000466122   -0.000063456    0.002451441
      4        1           0.000050368    0.003091146   -0.001609709
      5        6           0.001964511   -0.002178295   -0.003738544
      6        1          -0.000155800    0.000091221   -0.000006433
      7        1           0.000434479   -0.000662117    0.000098374
      8        1          -0.000143766    0.000772986   -0.000297871
      9        8           0.003537296    0.002539623   -0.002630392
     10        1           0.014768819    0.008728061    0.017124158
 -------------------------------------------------------------------
 Cartesian Forces:  Max     0.023839183 RMS     0.008045782

 GradGradGradGradGradGradGradGradGradGradGradGradGradGradGradGradGradGrad
 Berny optimization.
 FormGI is forming the generalized inverse of G from B-inverse, IUseBI=4.
 Internal  Forces:  Max     0.022118253 RMS     0.005551281
 Search for a saddle point.
 Step number   3 out of a maximum of   46
 All quantities printed in internal units (Hartrees-Bohrs-Radians)
 Swapping is turned off.
 Update second derivatives using D2CorX and points    2    3
 ITU=  0  0  0
     Eigenvalues ---   -0.08534   0.00058   0.00466   0.01648   0.02466
     Eigenvalues ---    0.04671   0.05171   0.05485   0.09423   0.10035
     Eigenvalues ---    0.11154   0.12468   0.13205   0.14156   0.16340
     Eigenvalues ---    0.18844   0.28625   0.30108   0.31701   0.32448
     Eigenvalues ---    0.32997   0.33793   0.34573   0.37246
 Eigenvectors required to have negative eigenvalues:
                          A6        A9        R5        R6        A8
   1                    0.73765  -0.48048   0.30172  -0.19293  -0.15430
                          D3        A7        D2        D4        D6
   1                   -0.13636  -0.11219  -0.09363   0.09210  -0.09135
 RFO step:  Lambda0=9.579483046D-03 Lambda=-1.77412759D-03.
 Linear search not attempted -- option 19 set.
 Maximum step size (   0.300) exceeded in Quadratic search.
    -- Step size scaled by   0.979
 Iteration  1 RMS(Cart)=  0.07430171 RMS(Int)=  0.00855444
 Iteration  2 RMS(Cart)=  0.00769606 RMS(Int)=  0.00210997
 Iteration  3 RMS(Cart)=  0.00008257 RMS(Int)=  0.00210917
 Iteration  4 RMS(Cart)=  0.00000047 RMS(Int)=  0.00210917
 Variable       Old X    -DE/DX   Delta X   Delta X   Delta X     New X
                                 (Linear)    (Quad)   (Total)
    R1        2.72523  -0.00046   0.00000  -0.01256  -0.01256   2.71267
    R2        2.06031   0.00022   0.00000   0.00052   0.00052   2.06083
    R3        2.77579   0.00287   0.00000  -0.00107  -0.00107   2.77472
    R4        2.10270   0.00288   0.00000   0.00351   0.00351   2.10621
    R5        2.49921  -0.00377   0.00000   0.10335   0.10335   2.60256
    R6        2.10988   0.01713   0.00000   0.00840   0.00840   2.11827
    R7        2.06580  -0.00000   0.00000  -0.00019  -0.00019   2.06561
    R8        2.08399   0.00014   0.00000   0.00118   0.00118   2.08517
    R9        2.07908  -0.00029   0.00000   0.00341   0.00341   2.08249
    A1        2.03673  -0.00048   0.00000   0.01479   0.01242   2.04915
    A2        2.13757   0.00123   0.00000   0.00665   0.00426   2.14184
    A3        2.09687  -0.00066   0.00000  -0.00291  -0.00531   2.09156
    A4        1.96369  -0.00052   0.00000   0.04127   0.03843   2.00212
    A5        2.20881  -0.00086   0.00000  -0.00572  -0.00488   2.20393
    A6        1.66652  -0.02212   0.00000   0.21380   0.21015   1.87667
    A7        2.03104   0.00257   0.00000  -0.04332  -0.04266   1.98838
    A8        1.78782   0.00479   0.00000  -0.02796  -0.03615   1.75167
    A9        1.64127   0.01451   0.00000  -0.16574  -0.16494   1.47633
   A10        1.93022  -0.00020   0.00000   0.00425   0.00415   1.93437
   A11        1.90685   0.00134   0.00000   0.01515   0.01509   1.92195
   A12        1.96321  -0.00110   0.00000  -0.01407  -0.01406   1.94914
   A13        1.89760  -0.00031   0.00000   0.00782   0.00767   1.90528
   A14        1.92266   0.00058   0.00000  -0.00582  -0.00586   1.91680
   A15        1.84019  -0.00026   0.00000  -0.00681  -0.00676   1.83343
    D1        0.36823  -0.00129   0.00000  -0.01658  -0.01341   0.35482
    D2        3.07238   0.00247   0.00000  -0.04589  -0.04603   3.02635
    D3       -1.48006   0.00366   0.00000  -0.09268  -0.09669  -1.57676
    D4       -2.93929  -0.00078   0.00000   0.11011   0.11394  -2.82536
    D5       -0.23514   0.00298   0.00000   0.08080   0.08131  -0.15383
    D6        1.49560   0.00418   0.00000   0.03401   0.03066   1.52625
    D7        0.09884  -0.00062   0.00000  -0.04884  -0.04859   0.05025
    D8        2.18690  -0.00029   0.00000  -0.02703  -0.02665   2.16025
    D9       -2.05909  -0.00042   0.00000  -0.03420  -0.03394  -2.09303
   D10        3.06895  -0.00006   0.00000   0.08374   0.08340  -3.13083
   D11       -1.12617   0.00027   0.00000   0.10556   0.10534  -1.02083
   D12        0.91103   0.00014   0.00000   0.09838   0.09805   1.00908
         Item               Value     Threshold  Converged?
 Maximum Force            0.022118     0.000450     NO 
 RMS     Force            0.005551     0.000300     NO 
 Maximum Displacement     0.380163     0.001800     NO 
 RMS     Displacement     0.076072     0.001200     NO 
 Predicted change in Energy= 4.290722D-03
 GradGradGradGradGradGradGradGradGradGradGradGradGradGradGradGradGradGrad

                          Input orientation:                          
 ---------------------------------------------------------------------
 Center     Atomic      Atomic             Coordinates (Angstroms)
 Number     Number       Type             X           Y           Z
 ---------------------------------------------------------------------
      1          6           0        0.655052    0.683284    0.032830
      2          6           0       -0.765718    0.530494    0.169519
      3          1           0        1.050719    1.699244    0.009235
      4          1           0       -1.360369    1.430016   -0.112420
      5          6           0        1.574204   -0.460234   -0.026184
      6          1           0        1.022772   -1.403754   -0.003750
      7          1           0        2.177448   -0.415092   -0.949010
      8          1           0        2.307266   -0.436134    0.796288
      9          8           0       -1.469387   -0.650880    0.092488
     10          1           0       -0.995102    0.472420    1.265201
 ---------------------------------------------------------------------
                    Distance matrix (angstroms):
                    1          2          3          4          5
     1  C    0.000000
     2  C    1.435484   0.000000
     3  H    1.090543   2.165897   0.000000
     4  H    2.154211   1.114558   2.429121   0.000000
     5  C    1.468318   2.548544   2.222305   3.491733   0.000000
     6  H    2.119501   2.640082   3.103151   3.704244   1.093074
     7  H    2.118521   3.287470   2.580342   4.076819   1.103426
     8  H    2.136768   3.281834   2.599654   4.214239   1.102007
     9  O    2.509341   1.377218   3.446875   2.093800   3.051865
    10  H    2.070316   1.120942   2.695910   1.717047   3.023053
                    6          7          8          9         10
     6  H    0.000000
     7  H    1.790041   0.000000
     8  H    1.796183   1.750245   0.000000
     9  O    2.605175   3.799963   3.847669   0.000000
    10  H    3.033493   3.969317   3.457019   1.691746   0.000000
 Stoichiometry    C3H6O
 Framework group  C1[X(C3H6O)]
 Deg. of freedom    24
 Full point group                 C1      NOp   1
 Largest Abelian subgroup         C1      NOp   1
 Largest concise Abelian subgroup C1      NOp   1
                         Standard orientation:                         
 ---------------------------------------------------------------------
 Center     Atomic      Atomic             Coordinates (Angstroms)
 Number     Number       Type             X           Y           Z
 ---------------------------------------------------------------------
      1          6           0        0.609969    0.669456   -0.045822
      2          6           0       -0.814621    0.499647    0.002370
      3          1           0        0.992613    1.689577   -0.092927
      4          1           0       -1.400776    1.374369   -0.363038
      5          6           0        1.546317   -0.459999    0.013710
      6          1           0        1.007387   -1.410445    0.045601
      7          1           0        2.210260   -0.449456   -0.867548
      8          1           0        2.221356   -0.383830    0.881431
      9          8           0       -1.495456   -0.695708   -0.063343
     10          1           0       -1.117186    0.490827    1.081669
 ---------------------------------------------------------------------
 Rotational constants (GHZ):          17.6003082           5.3218055           4.2904248
 Standard basis: def2TZVP (5D, 7F)
 There are   180 symmetry adapted cartesian basis functions of A   symmetry.
 There are   160 symmetry adapted basis functions of A   symmetry.
   160 basis functions,   252 primitive gaussians,   180 cartesian basis functions
    16 alpha electrons       16 beta electrons
       nuclear repulsion energy       115.9902682942 Hartrees.
 NAtoms=   10 NActive=   10 NUniq=   10 SFac= 1.00D+00 NAtFMM=   60 NAOKFM=F Big=F
 Integral buffers will be    131072 words long.
 Raffenetti 2 integral format.
 Two-electron integral symmetry is turned on.
 Nuclear repulsion after empirical dispersion term =      115.9728164981 Hartrees.
 Standard density basis: Auto (5D, 7F)
   734 Density fitting functions
 There are   734 symmetry adapted density basis functions of A   symmetry.
 One-electron integrals computed using PRISM.
   1 Symmetry operations used in ECPInt.
 ECPInt:  NShTT=    2346 NPrTT=    6892 LenC2=    2337 LenP2D=    5934.
 LDataN:  DoStor=T MaxTD1= 6 Len=  172
 NBasis=   160 RedAO= T EigKep=  2.83D-04  NBF=   160
 NBsUse=   160 1.00D-06 EigRej= -1.00D+00 NBFU=   160
 NBasis=      160 NBas6D=      180 NTT=       12880   NTT6D=    16290
 NDBShl=      110 NDBF=        734 NDBF6D=      928  NNucDB=        0
 IDenFi=        2 ISolve=        0 FullAP=F BlkAPC=T NucTyp=        0
 TolInv= 1.00D-06 TolIt=  1.00D-10 IR12=0.
 FoFCou: FMM=F IPFlag=           0 FMFlag=           0 FMFlg1=           0
         NFxFlg=           0 DoJE=F BraDBF=T KetDBF=T FulRan=T
         wScrn=  0.000000 ICntrl=       600 IOpCl=  3 I1Cent=           6 NGrid=           0
         NMat0=    1 NMatS0=    928 NMatT0=    0 NMatD0=    1 NMtDS0=    0 NMtDT0=    0
 Petite list used in FoFCou.
 DBF EigKep=  1.26D-06 EigRej=  8.72D-07
 NDBF=    734  NBFD=   734
 NRank=   723 NBFDU=   723
 S*AI*S=  7.31114047733    
 Initial guess from the checkpoint file:  "/home/monty/scratch/Gau-265261.chk"
 B after Tr=     0.000000   -0.000000    0.000000
         Rot=    0.999977   -0.003344    0.005016    0.003153 Ang=  -0.78 deg.
 Recovered     1 saved fitting vectors from chk file.
 ExpMin= 9.52D-02 ExpMax= 2.70D+04 ExpMxC= 9.22D+02 IAcc=3 IRadAn=         5 AccDes= 0.00D+00
 Harris functional with IExCor= 3630 and IRadAn=       5 diagonalized for initial guess.
 HarFok:  IExCor= 3630 AccDes= 0.00D+00 IRadAn=         5 IDoV= 1 UseB2=F ITyADJ=14
 ICtDFT=  3500011 ScaDFX=  1.000000  1.000000  1.000000  1.000000
 FoFCou: FMM=F IPFlag=           0 FMFlag=      100000 FMFlg1=           0
         NFxFlg=           0 DoJE=T BraDBF=F KetDBF=T FulRan=T
         wScrn=  0.000000 ICntrl=       500 IOpCl=  0 I1Cent=   200000004 NGrid=           0
         NMat0=    1 NMatS0=      1 NMatT0=    0 NMatD0=    1 NMtDS0=    0 NMtDT0=    0
 Petite list used in FoFCou.
 Requested convergence on RMS density matrix=1.00D-08 within 128 cycles.
 Requested convergence on MAX density matrix=1.00D-06.
 Requested convergence on             energy=1.00D-06.
 No special actions if energy rises.
 FoFCou: FMM=F IPFlag=           0 FMFlag=      100000 FMFlg1=           0
         NFxFlg=           0 DoJE=T BraDBF=T KetDBF=F FulRan=T
         wScrn=  0.000000 ICntrl=       500 IOpCl=  0 I1Cent=           5 NGrid=           0
         NMat0=    1 NMatS0=      1 NMatT0=    0 NMatD0=    1 NMtDS0=    0 NMtDT0=    0
 Symmetry not used in FoFCou.
 Initial convergence to 1.0D-05 achieved.  Increase integral accuracy.
 SCF Done:  E(RB97D3) =  -192.986696719     A.U. after   14 cycles
            NFock= 14  Conv=0.34D-08     -V/T= 2.0049
   1 Symmetry operations used in ECPInt.
 ECPInt:  NShTT=    2346 NPrTT=    6892 LenC2=    2337 LenP2D=    5934.
 LDataN:  DoStor=T MaxTD1= 7 Len=  274
 Calling FoFJK, ICntrl=      2527 FMM=F ISym2X=0 I1Cent= 4 IOpClX= 0 NMat=1 NMatS=1 NMatT=0.
 ***** Axes restored to original set *****
 -------------------------------------------------------------------
 Center     Atomic                   Forces (Hartrees/Bohr)
 Number     Number              X              Y              Z
 -------------------------------------------------------------------
      1        6          -0.010810885    0.002365410    0.005480808
      2        6          -0.020363583   -0.022294610   -0.017686680
      3        1          -0.000390157   -0.000345210    0.003420801
      4        1           0.004932635    0.001437915   -0.002323063
      5        6           0.002446214   -0.002497797   -0.000896715
      6        1           0.000042218    0.000210595    0.000001784
      7        1          -0.000393263   -0.000076935    0.000377758
      8        1          -0.000308188   -0.000001783   -0.000357402
      9        8           0.014080313    0.017047295   -0.000155478
     10        1           0.010764695    0.004155121    0.012138188
 -------------------------------------------------------------------
 Cartesian Forces:  Max     0.022294610 RMS     0.008570861

 GradGradGradGradGradGradGradGradGradGradGradGradGradGradGradGradGradGrad
 Berny optimization.
 FormGI is forming the generalized inverse of G from B-inverse, IUseBI=4.
 Internal  Forces:  Max     0.021808402 RMS     0.005888254
 Search for a saddle point.
 Step number   4 out of a maximum of   46
 All quantities printed in internal units (Hartrees-Bohrs-Radians)
 Swapping is turned off.
 Update second derivatives using D2CorX and points    3    4
 ITU=  0  0  0  0
     Eigenvalues ---   -0.01306  -0.00400   0.00267   0.01056   0.02496
     Eigenvalues ---    0.04766   0.05167   0.05485   0.09193   0.10119
     Eigenvalues ---    0.11136   0.12468   0.13181   0.13996   0.16292
     Eigenvalues ---    0.18127   0.28618   0.30184   0.31701   0.32460
     Eigenvalues ---    0.33052   0.33790   0.34575   0.38845
 Eigenvectors required to have negative eigenvalues:
                          A6        A9        D1        D6        R5
   1                   -0.71964   0.44102  -0.23200   0.20073  -0.19626
                          D5        D10       D12       D11       R6
   1                    0.17796   0.16201   0.14568   0.14502   0.12945
 RFO step:  Lambda0=1.956099609D-02 Lambda=-1.10187394D-02.
 Linear search not attempted -- option 19 set.
 Maximum step size (   0.300) exceeded in Quadratic search.
    -- Step size scaled by   0.637
 Iteration  1 RMS(Cart)=  0.07743749 RMS(Int)=  0.02964515
 Iteration  2 RMS(Cart)=  0.02600749 RMS(Int)=  0.00371341
 Iteration  3 RMS(Cart)=  0.00059595 RMS(Int)=  0.00367223
 Iteration  4 RMS(Cart)=  0.00000055 RMS(Int)=  0.00367223
 Variable       Old X    -DE/DX   Delta X   Delta X   Delta X     New X
                                 (Linear)    (Quad)   (Total)
    R1        2.71267  -0.01012   0.00000  -0.00172  -0.00172   2.71095
    R2        2.06083  -0.00054   0.00000   0.00139   0.00139   2.06222
    R3        2.77472   0.00300   0.00000   0.00218   0.00218   2.77690
    R4        2.10621  -0.00088   0.00000   0.00649   0.00649   2.11270
    R5        2.60256  -0.02181   0.00000   0.04291   0.04291   2.64548
    R6        2.11827   0.00945   0.00000  -0.01710  -0.01710   2.10117
    R7        2.06561  -0.00020   0.00000   0.00008   0.00008   2.06569
    R8        2.08517  -0.00053   0.00000   0.00297   0.00297   2.08814
    R9        2.08249  -0.00047   0.00000   0.00004   0.00004   2.08253
    A1        2.04915  -0.00067   0.00000  -0.00493  -0.01598   2.03317
    A2        2.14184   0.00021   0.00000   0.01455   0.00407   2.14591
    A3        2.09156   0.00044   0.00000  -0.01871  -0.02922   2.06234
    A4        2.00212  -0.00326   0.00000  -0.03991  -0.04719   1.95493
    A5        2.20393  -0.00119   0.00000  -0.01506  -0.01961   2.18432
    A6        1.87667  -0.01797   0.00000   0.26691   0.26580   2.14247
    A7        1.98838   0.00524   0.00000  -0.02429  -0.03071   1.95767
    A8        1.75167   0.00774   0.00000  -0.02043  -0.02336   1.72832
    A9        1.47633   0.01101   0.00000  -0.08704  -0.08616   1.39017
   A10        1.93437  -0.00012   0.00000   0.00199   0.00198   1.93635
   A11        1.92195  -0.00001   0.00000   0.02406   0.02411   1.94606
   A12        1.94914   0.00005   0.00000  -0.01960  -0.01953   1.92961
   A13        1.90528  -0.00000   0.00000  -0.01704  -0.01707   1.88821
   A14        1.91680   0.00004   0.00000   0.01416   0.01417   1.93097
   A15        1.83343   0.00006   0.00000  -0.00390  -0.00378   1.82965
    D1        0.35482  -0.00053   0.00000   0.27402   0.27346   0.62828
    D2        3.02635   0.00275   0.00000   0.06920   0.07118   3.09753
    D3       -1.57676   0.00272   0.00000   0.15613   0.15485  -1.42190
    D4       -2.82536  -0.00120   0.00000   0.00008  -0.00058  -2.82594
    D5       -0.15383   0.00207   0.00000  -0.20474  -0.20286  -0.35668
    D6        1.52625   0.00205   0.00000  -0.11781  -0.11919   1.40707
    D7        0.05025   0.00034   0.00000  -0.00526  -0.00627   0.04398
    D8        2.16025   0.00025   0.00000  -0.00938  -0.01032   2.14993
    D9       -2.09303   0.00034   0.00000  -0.01104  -0.01208  -2.10511
   D10       -3.13083  -0.00037   0.00000  -0.28530  -0.28432   2.86804
   D11       -1.02083  -0.00046   0.00000  -0.28943  -0.28837  -1.30920
   D12        1.00908  -0.00037   0.00000  -0.29108  -0.29013   0.71895
         Item               Value     Threshold  Converged?
 Maximum Force            0.021808     0.000450     NO 
 RMS     Force            0.005888     0.000300     NO 
 Maximum Displacement     0.328756     0.001800     NO 
 RMS     Displacement     0.099415     0.001200     NO 
 Predicted change in Energy= 5.322269D-03
 GradGradGradGradGradGradGradGradGradGradGradGradGradGradGradGradGradGrad

                          Input orientation:                          
 ---------------------------------------------------------------------
 Center     Atomic      Atomic             Coordinates (Angstroms)
 Number     Number       Type             X           Y           Z
 ---------------------------------------------------------------------
      1          6           0        0.664785    0.685582   -0.018578
      2          6           0       -0.742286    0.544798    0.222935
      3          1           0        1.083937    1.684373    0.114137
      4          1           0       -1.316300    1.445435   -0.107619
      5          6           0        1.589140   -0.456401   -0.046606
      6          1           0        1.051578   -1.397780    0.093874
      7          1           0        2.136087   -0.511305   -1.005174
      8          1           0        2.372952   -0.338724    0.719068
      9          8           0       -1.473936   -0.637385    0.058854
     10          1           0       -1.169072    0.430771    1.243306
 ---------------------------------------------------------------------
                    Distance matrix (angstroms):
                    1          2          3          4          5
     1  C    0.000000
     2  C    1.434572   0.000000
     3  H    1.091277   2.155356   0.000000
     4  H    2.123677   1.117991   2.422273   0.000000
     5  C    1.469470   2.551588   2.205444   3.473080   0.000000
     6  H    2.121945   2.647304   3.082390   3.705580   1.093116
     7  H    2.137906   3.302823   2.679716   4.068589   1.104997
     8  H    2.123949   3.275892   2.473949   4.180576   1.102028
     9  O    2.516021   1.399926   3.454900   2.095401   3.070230
    10  H    2.240604   1.111892   2.814709   1.695941   3.171542
                    6          7          8          9         10
     6  H    0.000000
     7  H    1.780422   0.000000
     8  H    1.805131   1.748971   0.000000
     9  O    2.637735   3.765676   3.914541   0.000000
    10  H    3.097754   4.106975   3.662360   1.623831   0.000000
 Stoichiometry    C3H6O
 Framework group  C1[X(C3H6O)]
 Deg. of freedom    24
 Full point group                 C1      NOp   1
 Largest Abelian subgroup         C1      NOp   1
 Largest concise Abelian subgroup C1      NOp   1
                         Standard orientation:                         
 ---------------------------------------------------------------------
 Center     Atomic      Atomic             Coordinates (Angstroms)
 Number     Number       Type             X           Y           Z
 ---------------------------------------------------------------------
      1          6           0        0.614863    0.662596   -0.101658
      2          6           0       -0.804027    0.510582    0.045441
      3          1           0        1.006992    1.677530   -0.017815
      4          1           0       -1.365588    1.370123   -0.396989
      5          6           0        1.556598   -0.457813    0.029350
      6          1           0        1.024885   -1.396831    0.203781
      7          1           0        2.175143   -0.575271   -0.878738
      8          1           0        2.278420   -0.263967    0.839204
      9          8           0       -1.502461   -0.696356   -0.078186
     10          1           0       -1.304769    0.467073    1.037241
 ---------------------------------------------------------------------
 Rotational constants (GHZ):          17.5835044           5.2556329           4.2515630
 Standard basis: def2TZVP (5D, 7F)
 There are   180 symmetry adapted cartesian basis functions of A   symmetry.
 There are   160 symmetry adapted basis functions of A   symmetry.
   160 basis functions,   252 primitive gaussians,   180 cartesian basis functions
    16 alpha electrons       16 beta electrons
       nuclear repulsion energy       115.5344653164 Hartrees.
 NAtoms=   10 NActive=   10 NUniq=   10 SFac= 1.00D+00 NAtFMM=   60 NAOKFM=F Big=F
 Integral buffers will be    131072 words long.
 Raffenetti 2 integral format.
 Two-electron integral symmetry is turned on.
 Nuclear repulsion after empirical dispersion term =      115.5171512028 Hartrees.
 Standard density basis: Auto (5D, 7F)
   734 Density fitting functions
 There are   734 symmetry adapted density basis functions of A   symmetry.
 One-electron integrals computed using PRISM.
   1 Symmetry operations used in ECPInt.
 ECPInt:  NShTT=    2346 NPrTT=    6892 LenC2=    2337 LenP2D=    5928.
 LDataN:  DoStor=T MaxTD1= 6 Len=  172
 NBasis=   160 RedAO= T EigKep=  2.87D-04  NBF=   160
 NBsUse=   160 1.00D-06 EigRej= -1.00D+00 NBFU=   160
 NBasis=      160 NBas6D=      180 NTT=       12880   NTT6D=    16290
 NDBShl=      110 NDBF=        734 NDBF6D=      928  NNucDB=        0
 IDenFi=        2 ISolve=        0 FullAP=F BlkAPC=T NucTyp=        0
 TolInv= 1.00D-06 TolIt=  1.00D-10 IR12=0.
 FoFCou: FMM=F IPFlag=           0 FMFlag=           0 FMFlg1=           0
         NFxFlg=           0 DoJE=F BraDBF=T KetDBF=T FulRan=T
         wScrn=  0.000000 ICntrl=       600 IOpCl=  3 I1Cent=           6 NGrid=           0
         NMat0=    1 NMatS0=    928 NMatT0=    0 NMatD0=    1 NMtDS0=    0 NMtDT0=    0
 Petite list used in FoFCou.
 DBF EigKep=  1.02D-06 EigRej=  4.87D-07
 NDBF=    734  NBFD=   734
 NRank=   724 NBFDU=   724
 S*AI*S=  7.31470811477    
 Initial guess from the checkpoint file:  "/home/monty/scratch/Gau-265261.chk"
 B after Tr=     0.000000   -0.000000    0.000000
         Rot=    0.999946    0.010124    0.002225    0.000282 Ang=   1.19 deg.
 Recovered     1 saved fitting vectors from chk file.
 ExpMin= 9.52D-02 ExpMax= 2.70D+04 ExpMxC= 9.22D+02 IAcc=3 IRadAn=         5 AccDes= 0.00D+00
 Harris functional with IExCor= 3630 and IRadAn=       5 diagonalized for initial guess.
 HarFok:  IExCor= 3630 AccDes= 0.00D+00 IRadAn=         5 IDoV= 1 UseB2=F ITyADJ=14
 ICtDFT=  3500011 ScaDFX=  1.000000  1.000000  1.000000  1.000000
 FoFCou: FMM=F IPFlag=           0 FMFlag=      100000 FMFlg1=           0
         NFxFlg=           0 DoJE=T BraDBF=F KetDBF=T FulRan=T
         wScrn=  0.000000 ICntrl=       500 IOpCl=  0 I1Cent=   200000004 NGrid=           0
         NMat0=    1 NMatS0=      1 NMatT0=    0 NMatD0=    1 NMtDS0=    0 NMtDT0=    0
 Petite list used in FoFCou.
 Requested convergence on RMS density matrix=1.00D-08 within 128 cycles.
 Requested convergence on MAX density matrix=1.00D-06.
 Requested convergence on             energy=1.00D-06.
 No special actions if energy rises.
 FoFCou: FMM=F IPFlag=           0 FMFlag=      100000 FMFlg1=           0
         NFxFlg=           0 DoJE=T BraDBF=T KetDBF=F FulRan=T
         wScrn=  0.000000 ICntrl=       500 IOpCl=  0 I1Cent=           5 NGrid=           0
         NMat0=    1 NMatS0=      1 NMatT0=    0 NMatD0=    1 NMtDS0=    0 NMtDT0=    0
 Symmetry not used in FoFCou.
 EnCoef did     2 forward-backward iterations
 Initial convergence to 1.0D-05 achieved.  Increase integral accuracy.
 SCF Done:  E(RB97D3) =  -192.976652758     A.U. after   13 cycles
            NFock= 13  Conv=0.37D-08     -V/T= 2.0049
   1 Symmetry operations used in ECPInt.
 ECPInt:  NShTT=    2346 NPrTT=    6892 LenC2=    2337 LenP2D=    5928.
 LDataN:  DoStor=T MaxTD1= 7 Len=  274
 Calling FoFJK, ICntrl=      2527 FMM=F ISym2X=0 I1Cent= 4 IOpClX= 0 NMat=1 NMatS=1 NMatT=0.
 ***** Axes restored to original set *****
 -------------------------------------------------------------------
 Center     Atomic                   Forces (Hartrees/Bohr)
 Number     Number              X              Y              Z
 -------------------------------------------------------------------
      1        6          -0.010811863    0.003131990    0.029453129
      2        6          -0.016654735   -0.019721622   -0.045460205
      3        1          -0.001345455    0.000610633   -0.003070845
      4        1           0.003998423    0.001802035    0.000594815
      5        6           0.002851174   -0.003869874   -0.006326406
[...]
      7        1          -0.000002389    0.000002043   -0.000002321
      8        1          -0.000000727   -0.000000019   -0.000000749
      9        8           0.000036258    0.000063070   -0.000015655
     10        1           0.000019381    0.000004875    0.000009133
 -------------------------------------------------------------------
 Cartesian Forces:  Max     0.000081399 RMS     0.000024546
 FormGI is forming the generalized inverse of G from B-inverse, IUseBI=4.

 GradGradGradGradGradGradGradGradGradGradGradGradGradGradGradGradGradGrad
 Berny optimization.
 Internal  Forces:  Max     0.000074494 RMS     0.000014584
 Search for a saddle point.
 Step number   1 out of a maximum of    2
 All quantities printed in internal units (Hartrees-Bohrs-Radians)
 Swapping is turned off.
 Second derivative matrix not updated -- analytic derivatives used.
 ITU=  0
     Eigenvalues ---   -0.17537   0.00104   0.00843   0.01614   0.02027
     Eigenvalues ---    0.04423   0.05404   0.05552   0.10358   0.11478
     Eigenvalues ---    0.12247   0.13649   0.13965   0.17268   0.21350
     Eigenvalues ---    0.21694   0.30552   0.30656   0.31532   0.32662
     Eigenvalues ---    0.33766   0.34364   0.43407   0.47289
 Eigenvectors required to have negative eigenvalues:
                          A9        A6        D3        D6        R5
   1                   -0.68099   0.56022  -0.26516  -0.26224   0.13458
                          D5        D2        R1        R6        A4
   1                    0.13303   0.13011  -0.11374   0.10174   0.05467
 Angle between quadratic step and forces=  74.87 degrees.
 Linear search not attempted -- option 19 set.
 Iteration  1 RMS(Cart)=  0.00034649 RMS(Int)=  0.00000015
 Iteration  2 RMS(Cart)=  0.00000014 RMS(Int)=  0.00000004
 Variable       Old X    -DE/DX   Delta X   Delta X   Delta X     New X
                                 (Linear)    (Quad)   (Total)
    R1        2.64746   0.00002   0.00000   0.00003   0.00003   2.64749
    R2        2.05777   0.00000   0.00000   0.00000   0.00000   2.05777
    R3        2.81917  -0.00001   0.00000   0.00004   0.00004   2.81921
    R4        2.08519  -0.00000   0.00000  -0.00001  -0.00001   2.08518
    R5        2.53918  -0.00007   0.00000  -0.00025  -0.00025   2.53894
    R6        2.27467   0.00001   0.00000   0.00040   0.00040   2.27507
    R7        2.06562  -0.00000   0.00000   0.00000   0.00000   2.06563
    R8        2.07782   0.00000   0.00000  -0.00001  -0.00001   2.07781
    R9        2.07449  -0.00000   0.00000  -0.00001  -0.00001   2.07448
    A1        2.02299   0.00000   0.00000  -0.00004  -0.00004   2.02295
    A2        2.17493  -0.00000   0.00000   0.00006   0.00006   2.17499
    A3        2.08431  -0.00000   0.00000  -0.00001  -0.00001   2.08430
    A4        2.03976   0.00000   0.00000   0.00006   0.00006   2.03981
    A5        2.18362  -0.00000   0.00000  -0.00014  -0.00014   2.18347
    A6        1.47231  -0.00003   0.00000  -0.00082  -0.00082   1.47149
    A7        2.05969   0.00000   0.00000   0.00007   0.00007   2.05976
    A8        2.07225   0.00001   0.00000   0.00069   0.00069   2.07294
    A9        1.20708   0.00002   0.00000  -0.00038  -0.00038   1.20670
   A10        1.93459  -0.00000   0.00000   0.00001   0.00001   1.93460
   A11        1.91270  -0.00000   0.00000  -0.00001  -0.00001   1.91269
   A12        1.96039   0.00000   0.00000   0.00001   0.00001   1.96040
   A13        1.88973   0.00000   0.00000  -0.00003  -0.00003   1.88969
   A14        1.90518   0.00000   0.00000  -0.00003  -0.00003   1.90515
   A15        1.85851   0.00000   0.00000   0.00006   0.00006   1.85856
    D1        0.18149  -0.00000   0.00000  -0.00024  -0.00024   0.18125
    D2       -2.94275   0.00000   0.00000   0.00055   0.00055  -2.94220
    D3       -1.90305   0.00000   0.00000  -0.00060  -0.00060  -1.90365
    D4       -3.00755  -0.00001   0.00000  -0.00009  -0.00009  -3.00764
    D5        0.15140  -0.00000   0.00000   0.00069   0.00069   0.15209
    D6        1.19110   0.00000   0.00000  -0.00045  -0.00045   1.19064
    D7       -0.01752   0.00000   0.00000  -0.00030  -0.00030  -0.01782
    D8        2.06723   0.00000   0.00000  -0.00034  -0.00034   2.06688
    D9       -2.15393   0.00000   0.00000  -0.00027  -0.00027  -2.15421
   D10        3.07508  -0.00000   0.00000  -0.00015  -0.00015   3.07493
   D11       -1.12336  -0.00000   0.00000  -0.00019  -0.00019  -1.12355
   D12        0.93866  -0.00000   0.00000  -0.00012  -0.00012   0.93854
         Item               Value     Threshold  Converged?
 Maximum Force            0.000074     0.000450     YES
 RMS     Force            0.000015     0.000300     YES
 Maximum Displacement     0.001293     0.001800     YES
 RMS     Displacement     0.000347     0.001200     YES
 Predicted change in Energy=-2.083336D-08
 Optimization completed.
    -- Stationary point found.
                           ----------------------------
                           !   Optimized Parameters   !
                           ! (Angstroms and Degrees)  !
 --------------------------                            --------------------------
 ! Name  Definition              Value          Derivative Info.                !
 --------------------------------------------------------------------------------
 ! R1    R(1,2)                  1.401          -DE/DX =    0.0                 !
 ! R2    R(1,3)                  1.0889         -DE/DX =    0.0                 !
 ! R3    R(1,5)                  1.4918         -DE/DX =    0.0                 !
 ! R4    R(2,4)                  1.1034         -DE/DX =    0.0                 !
 ! R5    R(2,9)                  1.3437         -DE/DX =   -0.0001              !
 ! R6    R(2,10)                 1.2037         -DE/DX =    0.0                 !
 ! R7    R(5,6)                  1.0931         -DE/DX =    0.0                 !
 ! R8    R(5,7)                  1.0995         -DE/DX =    0.0                 !
 ! R9    R(5,8)                  1.0978         -DE/DX =    0.0                 !
 ! A1    A(2,1,3)              115.9088         -DE/DX =    0.0                 !
 ! A2    A(2,1,5)              124.6142         -DE/DX =    0.0                 !
 ! A3    A(3,1,5)              119.4222         -DE/DX =    0.0                 !
 ! A4    A(1,2,4)              116.8694         -DE/DX =    0.0                 !
 ! A5    A(1,2,9)              125.112          -DE/DX =    0.0                 !
 ! A6    A(1,2,10)              84.357          -DE/DX =    0.0                 !
 ! A7    A(4,2,9)              118.0115         -DE/DX =    0.0                 !
 ! A8    A(4,2,10)             118.7311         -DE/DX =    0.0                 !
 ! A9    A(9,2,10)              69.1605         -DE/DX =    0.0                 !
 ! A10   A(1,5,6)              110.8441         -DE/DX =    0.0                 !
 ! A11   A(1,5,7)              109.5898         -DE/DX =    0.0                 !
 ! A12   A(1,5,8)              112.3219         -DE/DX =    0.0                 !
 ! A13   A(6,5,7)              108.2733         -DE/DX =    0.0                 !
 ! A14   A(6,5,8)              109.1585         -DE/DX =    0.0                 !
 ! A15   A(7,5,8)              106.4846         -DE/DX =    0.0                 !
 ! D1    D(3,1,2,4)             10.3984         -DE/DX =    0.0                 !
 ! D2    D(3,1,2,9)           -168.6072         -DE/DX =    0.0                 !
 ! D3    D(3,1,2,10)          -109.0368         -DE/DX =    0.0                 !
 ! D4    D(5,1,2,4)           -172.3199         -DE/DX =    0.0                 !
 ! D5    D(5,1,2,9)              8.6745         -DE/DX =    0.0                 !
 ! D6    D(5,1,2,10)            68.2449         -DE/DX =    0.0                 !
 ! D7    D(2,1,5,6)             -1.0038         -DE/DX =    0.0                 !
 ! D8    D(2,1,5,7)            118.4435         -DE/DX =    0.0                 !
 ! D9    D(2,1,5,8)           -123.4113         -DE/DX =    0.0                 !
 ! D10   D(3,1,5,6)            176.1889         -DE/DX =    0.0                 !
 ! D11   D(3,1,5,7)            -64.3637         -DE/DX =    0.0                 !
 ! D12   D(3,1,5,8)             53.7814         -DE/DX =    0.0                 !
 --------------------------------------------------------------------------------
 GradGradGradGradGradGradGradGradGradGradGradGradGradGradGradGradGradGrad


 ----------------------------------------------------------------------

 Electric dipole moment (input orientation):
 (Debye = 10**-18 statcoulomb cm , SI units = C m)
                  (au)            (Debye)         (10**-30 SI)
   Tot        0.119883D+01      0.304713D+01      0.101641D+02
   x          0.930420D+00      0.236489D+01      0.788843D+01
   y          0.733996D+00      0.186563D+01      0.622308D+01
   z          0.181028D+00      0.460127D+00      0.153482D+01

 Dipole polarizability, Alpha (input orientation).
 (esu units = cm**3 , SI units = C**2 m**2 J**-1)
 Alpha(0;0):
               (au)            (10**-24 esu)      (10**-40 SI)
   iso        0.460353D+02      0.682173D+01      0.759020D+01
   aniso      0.254155D+02      0.376619D+01      0.419045D+01
   xx         0.611672D+02      0.906405D+01      0.100851D+02
   yx         0.281925D+01      0.417769D+00      0.464831D+00
   yy         0.437766D+02      0.648702D+01      0.721778D+01
   zx        -0.208121D+01     -0.308404D+00     -0.343145D+00
   zy        -0.177164D+01     -0.262529D+00     -0.292103D+00
   zz         0.331621D+02      0.491412D+01      0.546770D+01

 ----------------------------------------------------------------------

 Dipole orientation:
     6         -0.02172387          0.42611821          1.68688898
     6         -1.20592003          1.36005406         -0.48900109
     1         -0.50538722          1.37109082          3.44969960
     1         -2.24937648          3.15517433         -0.29727836
     6          1.72059110         -1.78964634          1.73610107
     1          1.92287361         -2.60763454         -0.14984058
     1          3.59828197         -1.18504528          2.38883695
     1          1.08575403         -3.26208178          3.05232490
     8         -1.19470189          0.22387768         -2.75978011
     1         -2.36931262         -0.59345231         -0.42218391

 Electric dipole moment (dipole orientation):
 (Debye = 10**-18 statcoulomb cm , SI units = C m)
                  (au)            (Debye)         (10**-30 SI)
   Tot        0.119883D+01      0.304713D+01      0.101641D+02
   x          0.000000D+00      0.000000D+00      0.000000D+00
   y          0.000000D+00      0.000000D+00      0.000000D+00
   z          0.119883D+01      0.304713D+01      0.101641D+02

 Dipole polarizability, Alpha (dipole orientation).
 (esu units = cm**3 , SI units = C**2 m**2 J**-1)
 Alpha(0;0):
               (au)            (10**-24 esu)      (10**-40 SI)
   iso        0.460353D+02      0.682173D+01      0.759020D+01
   aniso      0.254155D+02      0.376619D+01      0.419045D+01
   xx         0.406298D+02      0.602071D+01      0.669894D+01
   yx        -0.665943D+01     -0.986825D+00     -0.109799D+01
   yy         0.416027D+02      0.616488D+01      0.685936D+01
   zx         0.965332D+01      0.143048D+01      0.159162D+01
   zy        -0.222548D+01     -0.329782D+00     -0.366932D+00
   zz         0.558735D+02      0.827960D+01      0.921229D+01

 ----------------------------------------------------------------------
 Unable to Open any file for archive entry.
 1\1\GINC-RTX\Freq\RB97D3\def2TZVP/Auto\C3H6O1\MONTY\22-Mar-2026\0\\#N 
 Geom=AllCheck Guess=TCheck SCRF=Check GenChk RB97D3/def2TZVP/Auto Freq
 \\cis 1-propenol - propionaldehyde TS\\0,1\C,0.594228569,0.7033397553,
 0.005657599\C,-0.8021475526,0.5903305422,0.0155444835\H,0.9897625806,1
 .7173395837,0.0389937003\H,-1.3787887126,1.5209649753,-0.1221978231\C,
 1.5380038071,-0.4520089331,0.0119193169\H,0.9931803362,-1.3991184884,0
 .0431642442\H,2.1476454017,-0.4349920294,-0.9029702741\H,2.2401083565,
 -0.4122879305,0.8548798184\O,-1.4837059903,-0.5532634349,0.1975983107\
 H,-0.6414020956,0.1690600997,1.1316077442\\Version=ES64L-G16RevC.01\St
 ate=1-A\HF=-192.9910147\RMSD=2.028e-09\RMSF=2.455e-05\ZeroPoint=0.0767
 26\Thermal=0.0818528\ETot=-192.9091619\HTot=-192.9082177\GTot=-192.941
 6383\Dipole=0.9304202,0.7339959,0.1810278\DipoleDeriv=-0.0093727,-0.14
 97018,-0.1146216,-0.2036376,0.0816301,0.0356396,-0.0791562,0.0957452,-
 0.2535649,0.6425137,0.0957681,0.0660493,0.1694355,0.5764773,-0.1000912
 ,0.4492941,-0.1049613,-0.0782981,0.0188375,-0.0064643,0.0085538,-0.008
 3327,-0.1084648,-0.0070769,0.0251233,0.0085252,0.1386467,0.0050286,0.1
 081108,-0.0224132,0.1298255,-0.1835711,0.0398308,-0.0328355,0.0459802,
 0.1181127,-0.0863763,0.0383906,0.0389849,-0.0202947,-0.0204161,0.00182
 5,0.0667747,-0.018893,0.1499619,0.0403807,-0.0969093,0.0035225,0.01083
 64,-0.034504,-0.0009037,-0.0109823,0.0122844,0.0738652,-0.0106166,0.02
 39868,0.0758725,0.0890954,0.0688483,0.0195795,0.1042739,-0.0007005,-0.
 0469465,-0.0317986,0.02367,-0.0789801,0.0704573,0.0582719,-0.0379366,-
 0.1412013,0.0031523,-0.0364454,-0.956008,-0.2570904,0.1132278,-0.69121
 02,-0.7703088,0.1530835,-0.2850965,-0.0940393,-0.2739793,0.3874117,0.2
 202395,-0.090196,0.4538252,0.3320372,-0.10395,-0.0961942,0.0529068,0.2
 086477\Polar=61.1672393,2.8192481,43.7765663,-2.0812116,-1.7716354,33.
 1621405\Quadrupole=-1.5343948,0.4510135,1.0833813,-2.2701406,-0.077497
 6,0.0446763\PG=C01 [X(C3H6O1)]\NImag=1\\0.62650893,0.04261412,0.594578
 87,0.00796341,0.00437535,0.10749700,-0.33738739,-0.01663774,0.01475009
 ,0.58165644,0.01517615,-0.11351585,0.01490768,-0.06919156,0.52876507,-
 0.02952275,0.00646063,-0.01473108,0.04397702,-0.06731608,0.23753831,-0
 .08751357,-0.08872984,-0.00152911,-0.00975750,-0.03264486,-0.00161395,
 0.09268902,-0.09393739,-0.28698742,-0.00788951,0.00322838,-0.00160040,
 -0.00073452,0.09795427,0.30307615,-0.00903603,-0.00958176,-0.02847807,
 0.00839192,0.00384151,-0.00716621,0.00365768,0.00867301,0.01968646,-0.
 01680873,0.02746017,-0.00199427,-0.12691158,0.10077225,-0.02087559,0.0
 0036793,-0.00040685,0.00035527,0.13205663,0.00005023,0.00444946,-0.000
 50815,0.11379335,-0.19655953,0.02197717,0.00065301,0.00075822,-0.00075
 253,-0.11023854,0.22972686,0.00180811,-0.00242367,0.00295426,-0.020837
 95,0.01757817,-0.05461997,-0.00002065,0.00033566,-0.00232172,0.0169859
 9,-0.03112115,0.03298394,-0.12790630,0.05774853,-0.00245611,-0.0200359
 0,0.02719391,0.00720007,0.01042159,-0.01002914,-0.00114696,-0.00294138
 ,-0.00091581,0.00047029,0.50972992,0.05895277,-0.16757528,0.00276841,0
 .00708197,0.00765330,-0.00421340,0.01865640,-0.01540515,0.00025375,-0.
 00284114,0.00135953,-0.00029676,0.04882043,0.50298944,-0.00801058,0.00
 209020,-0.06002642,0.00000882,0.00107750,-0.00051755,-0.00033995,-0.00
 038958,0.00109993,-0.00083806,0.00151796,0.00787323,0.00746301,-0.0044
 8807,0.49896234,0.01398993,0.01919158,-0.00083923,0.00009676,0.0005529
 3,0.00117187,-0.00281809,0.00319793,-0.00005809,0.00037702,-0.00062504
 ,0.00012820,-0.11234108,-0.11533056,0.00284932,0.11949975,-0.01100274,
 -0.02442311,0.00052211,-0.00248432,-0.00087873,-0.00030081,0.00340377,
 -0.00197024,-0.00004816,-0.00017448,0.00000910,0.00006413,-0.11180619,
 -0.23937282,0.00674633,0.12151655,0.26379942,0.00047290,-0.00084690,-0
 .00135902,-0.00017866,-0.00003609,0.00088243,0.00005638,-0.00016360,0.
 00144373,-0.00002038,0.00011996,0.00007196,0.00248796,0.00684617,-0.04
 601103,-0.00398476,-0.00704457,0.04547358,-0.01714114,0.00309907,0.015
 61613,0.00049450,0.00216358,0.00034305,0.00046665,0.00020304,-0.000350
 26,-0.00051173,-0.00009524,-0.00083839,-0.11265663,-0.00681806,0.11577
 867,-0.00837005,0.00064136,0.01270597,0.12706246,0.01620076,-0.0006808
 3,-0.02063041,-0.00026704,-0.00329989,-0.00218655,-0.00091625,0.000235
 11,0.00072606,0.00030657,0.00017516,0.00175978,-0.00341281,-0.04227359
 ,0.00389778,-0.01313203,0.00075737,0.02345725,0.00024150,0.04444501,0.
 00176589,-0.00233781,0.00303744,-0.00196464,-0.00060477,0.00022994,0.0
 0029781,-0.00037045,0.00043134,-0.00012009,0.00000169,-0.00033221,0.11
 366519,0.00710663,-0.21276002,-0.00078146,0.00030150,-0.00027603,-0.12
 577450,-0.00598801,0.23281492,-0.01901816,0.00183809,-0.01205303,0.000
 37799,0.00311263,-0.00248265,0.00053094,0.00016815,0.00074998,-0.00084
 591,0.00019037,0.00092821,-0.13919734,-0.01136260,-0.12365329,-0.00939
 489,0.00035440,-0.01153170,0.01064254,0.00045476,0.01310137,0.15603417
 ,0.01960826,0.00132541,0.01979756,-0.00144562,-0.00425972,-0.00029484,
 -0.00076545,0.00057972,-0.00044049,0.00073607,-0.00042546,-0.00158809,
 -0.00888282,-0.04595634,-0.00860576,-0.01517943,0.00030442,-0.02198373
 ,0.00029157,-0.00029193,0.00121307,0.00516154,0.04672289,0.00240778,0.
 00105814,0.00370298,0.00071851,-0.00055951,0.00018296,-0.00031571,0.00
 035775,0.00029013,0.00010366,-0.00006804,-0.00028893,-0.12354765,-0.00
 969796,-0.19027475,0.00227973,-0.00034717,0.00139276,-0.01670704,-0.00
 183446,-0.02236725,0.13470638,0.01074897,0.20771460,-0.00918899,-0.050
 78278,-0.00708163,-0.15632087,-0.12602810,0.03283787,-0.00453301,0.000
 01044,0.00194182,0.01604972,0.00000174,0.00728157,0.00056400,-0.000045
 31,0.00182283,-0.00156651,-0.00011024,-0.00034588,-0.00054408,0.000312
 41,-0.00008959,0.00036819,0.00070259,-0.00026699,0.17595561,-0.0127419
 6,-0.00591988,-0.01670151,-0.10013771,-0.26594688,0.04933428,0.0031086
 5,0.00204108,-0.00066994,-0.01453565,-0.03593337,0.00965828,-0.0044427
 5,-0.00074278,0.00283627,-0.00175870,0.00329133,-0.00015224,-0.0000548
 1,0.00303728,-0.00010180,0.00047551,0.00287073,-0.00021929,0.16750110,
 0.31500055,0.03456536,0.00245630,0.01439696,-0.03703103,-0.03479985,0.
 00183935,0.00165884,0.00026557,0.01207794,0.00390934,0.01019326,0.0070
 1676,-0.00293921,0.00141307,-0.00413519,-0.00104330,0.00035198,-0.0012
 6756,0.00034394,-0.00033929,-0.00066647,0.00002287,0.00165635,-0.00064
 864,-0.02518014,-0.02745350,-0.00677530,-0.02553457,0.00419880,-0.0123
 7624,0.06778756,0.07889306,-0.03103494,0.00014605,-0.00038882,-0.00450
 532,-0.00083197,-0.00281406,-0.00590538,-0.00563688,0.00288608,0.00491
 923,0.00052716,-0.00033811,0.00033817,0.00055749,0.00021214,-0.0000999
 9,0.00050246,-0.00022671,0.00062133,-0.02078405,-0.03741369,0.02569333
 ,-0.01673324,-0.03492021,-0.00125139,0.00335845,0.06606028,0.04964263,
 -0.00272588,-0.00071969,-0.00072706,-0.00200146,-0.00107840,-0.0035599
 8,0.00603366,0.00572665,-0.00067631,-0.00468263,0.00156677,-0.00151673
 ,-0.00019625,0.00032799,-0.00210369,0.00077994,-0.00039284,-0.00086972
 ,0.00056157,0.00843813,-0.01769807,0.04625610,-0.04500869,-0.02123969,
 -0.00241410,-0.00125048,-0.02699405,-0.00783408,0.06591143,-0.16363820
 ,-0.00185133,-0.00008434,0.00293646,0.00249412,-0.00136018,0.00666267,
 -0.00119658,0.00030816,0.00578946,0.00027771,-0.00024534,-0.00035083,-
 0.00111758,0.00113783,-0.00011167,0.00021187,-0.00050304,0.00029614,-0
 .01091986,-0.01653054,-0.02183785,0.02234982,-0.04738350,0.19724786\\-
 0.00003016,0.00001268,0.00000235,0.00008140,0.00006441,0.00000543,-0.0
 0000048,-0.00000171,-0.00000507,-0.00000060,0.00000203,-0.00000424,0.0
 0000176,-0.00000608,-0.00000805,0.00000060,-0.00000137,0.,0.00000239,-
 0.00000204,0.00000232,0.00000073,0.00000002,0.00000075,-0.00003626,-0.
 00006307,0.00001565,-0.00001938,-0.00000487,-0.00000913\\\@
 The archive entry for this job was punched.


 Human beings, who are almost unique in having the
 ability to learn from the experience of others, are
 also remarkable for their apparent disinclination to do so.
                               -- Douglas Adams,
                                Last Chance to See
 Job cpu time:       0 days  0 hours  1 minutes 32.8 seconds.
 Elapsed time:       0 days  0 hours  0 minutes 23.2 seconds.
 File lengths (MBytes):  RWF=     32 Int=      0 D2E=      0 Chk=      7 Scr=      1
 Normal termination of Gaussian 16 at Sun Mar 22 23:58:55 2026.
