 Entering Gaussian System, Link 0=g16
 Input=2propenol.com
 Output=2propenol.log
 Initial command:
 /usr/local//g16/l1.exe "/home/monty/scratch/Gau-143162.inp" -scrdir="/home/monty/scratch/"
 Entering Link 1 = /usr/local//g16/l1.exe PID=    143164.
  
 Copyright (c) 1988-2019, Gaussian, Inc.  All Rights Reserved.
  
 This is part of the Gaussian(R) 16 program.  It is based on
 the Gaussian(R) 09 system (copyright 2009, Gaussian, Inc.),
 the Gaussian(R) 03 system (copyright 2003, Gaussian, Inc.),
 the Gaussian(R) 98 system (copyright 1998, Gaussian, Inc.),
 the Gaussian(R) 94 system (copyright 1995, Gaussian, Inc.),
 the Gaussian 92(TM) system (copyright 1992, Gaussian, Inc.),
 the Gaussian 90(TM) system (copyright 1990, Gaussian, Inc.),
 the Gaussian 88(TM) system (copyright 1988, Gaussian, Inc.),
 the Gaussian 86(TM) system (copyright 1986, Carnegie Mellon
 University), and the Gaussian 82(TM) system (copyright 1983,
 Carnegie Mellon University). Gaussian is a federally registered
 trademark of Gaussian, Inc.
  
 This software contains proprietary and confidential information,
 including trade secrets, belonging to Gaussian, Inc.
  
 This software is provided under written license and may be
 used, copied, transmitted, or stored only in accord with that
 written license.
  
 The following legend is applicable only to US Government
 contracts under FAR:
  
                    RESTRICTED RIGHTS LEGEND
  
 Use, reproduction and disclosure by the US Government is
 subject to restrictions as set forth in subparagraphs (a)
 and (c) of the Commercial Computer Software - Restricted
 Rights clause in FAR 52.227-19.
  
 Gaussian, Inc.
 340 Quinnipiac St., Bldg. 40, Wallingford CT 06492
  
  
 ---------------------------------------------------------------
 Warning -- This program may not be used in any manner that
 competes with the business of Gaussian, Inc. or will provide
 assistance to any competitor of Gaussian, Inc.  The licensee
 of this program is prohibited from giving any competitor of
 Gaussian, Inc. access to this program.  By using this program,
 the user acknowledges that Gaussian, Inc. is engaged in the
 business of creating and licensing software in the field of
 computational chemistry and represents and warrants to the
 licensee that it is not a competitor of Gaussian, Inc. and that
 it will not use this program in any manner prohibited above.
 ---------------------------------------------------------------
  

 Cite this work as:
 Gaussian 16, Revision C.01,
 M. J. Frisch, G. W. Trucks, H. B. Schlegel, G. E. Scuseria, 
 M. A. Robb, J. R. Cheeseman, G. Scalmani, V. Barone, 
 G. A. Petersson, H. Nakatsuji, X. Li, M. Caricato, A. V. Marenich, 
 J. Bloino, B. G. Janesko, R. Gomperts, B. Mennucci, H. P. Hratchian, 
 J. V. Ortiz, A. F. Izmaylov, J. L. Sonnenberg, D. Williams-Young, 
 F. Ding, F. Lipparini, F. Egidi, J. Goings, B. Peng, A. Petrone, 
 T. Henderson, D. Ranasinghe, V. G. Zakrzewski, J. Gao, N. Rega, 
 G. Zheng, W. Liang, M. Hada, M. Ehara, K. Toyota, R. Fukuda, 
 J. Hasegawa, M. Ishida, T. Nakajima, Y. Honda, O. Kitao, H. Nakai, 
 T. Vreven, K. Throssell, J. A. Montgomery, Jr., J. E. Peralta, 
 F. Ogliaro, M. J. Bearpark, J. J. Heyd, E. N. Brothers, K. N. Kudin, 
 V. N. Staroverov, T. A. Keith, R. Kobayashi, J. Normand, 
 K. Raghavachari, A. P. Rendell, J. C. Burant, S. S. Iyengar, 
 J. Tomasi, M. Cossi, J. M. Millam, M. Klene, C. Adamo, R. Cammi, 
 J. W. Ochterski, R. L. Martin, K. Morokuma, O. Farkas, 
 J. B. Foresman, and D. J. Fox, Gaussian, Inc., Wallingford CT, 2019.
 
 ******************************************
 Gaussian 16:  ES64L-G16RevC.01  3-Jul-2019
                21-Mar-2026 
 ******************************************
 %mem=512MW
 %nprocshared=4
 Will use up to    4 processors via shared memory.
 --------------------------------------------------------
 # opt freq b97d3/def2tzvp/auto EmpiricalDispersion=GD3BJ
 --------------------------------------------------------
 1/18=20,19=15,26=3,38=1/1,3;
 2/9=110,12=2,17=6,18=5,40=1/2;
 3/5=44,7=101,11=2,25=1,30=1,71=1,74=-59,82=28,124=41/1,2,3;
 4//1;
 5/5=2,38=5/2;
 6/7=2,8=2,9=2,10=2,28=1/1;
 7//1,2,3,16;
 1/18=20,19=15,26=3/3(2);
 2/9=110/2;
 99//99;
 2/9=110/2;
 3/5=44,7=101,11=2,25=1,30=1,71=1,74=-59,82=28,124=41/1,2,3;
 4/5=5,16=3,69=1/1;
 5/5=2,38=5/2;
 7//1,2,3,16;
 1/18=20,19=15,26=3/3(-5);
 2/9=110/2;
 6/7=2,8=2,9=2,10=2,19=2,28=1/1;
 99/9=1/99;
 ----------
 2-propenol
 ----------
 Symbolic Z-matrix:
 Charge =  0 Multiplicity = 1
 C                    -1.94872  -0.89744   0. 
 C                    -0.6228   -0.89744   0. 
 H                    -2.5423    0.0266    0. 
 H                    -2.54233  -1.82145  -0.00002 
 H                    -0.02922  -1.82147  -0.00002 
 C                     0.20957   0.39823   0.00004 
 H                    -0.02059   0.97005  -0.87458 
 H                    -0.02345   0.97183   0.87272 
 O                     1.60152   0.07055   0.00265 
 H                     2.12081   0.87798   0.00235 
 

 GradGradGradGradGradGradGradGradGradGradGradGradGradGradGradGradGradGrad
 Berny optimization.
 Initialization pass.
                           ----------------------------
                           !    Initial Parameters    !
                           ! (Angstroms and Degrees)  !
 --------------------------                            --------------------------
 ! Name  Definition              Value          Derivative Info.                !
 --------------------------------------------------------------------------------
 ! R1    R(1,2)                  1.3259         estimate D2E/DX2                !
 ! R2    R(1,3)                  1.0983         estimate D2E/DX2                !
 ! R3    R(1,4)                  1.0983         estimate D2E/DX2                !
 ! R4    R(2,5)                  1.0983         estimate D2E/DX2                !
 ! R5    R(2,6)                  1.54           estimate D2E/DX2                !
 ! R6    R(6,7)                  1.07           estimate D2E/DX2                !
 ! R7    R(6,8)                  1.07           estimate D2E/DX2                !
 ! R8    R(6,9)                  1.43           estimate D2E/DX2                !
 ! R9    R(9,10)                 0.96           estimate D2E/DX2                !
 ! A1    A(2,1,3)              122.7159         estimate D2E/DX2                !
 ! A2    A(2,1,4)              122.718          estimate D2E/DX2                !
 ! A3    A(3,1,4)              114.5661         estimate D2E/DX2                !
 ! A4    A(1,2,5)              122.7159         estimate D2E/DX2                !
 ! A5    A(1,2,6)              122.718          estimate D2E/DX2                !
 ! A6    A(5,2,6)              114.5661         estimate D2E/DX2                !
 ! A7    A(2,6,7)              109.4712         estimate D2E/DX2                !
 ! A8    A(2,6,8)              109.4712         estimate D2E/DX2                !
 ! A9    A(2,6,9)              109.4712         estimate D2E/DX2                !
 ! A10   A(7,6,8)              109.4712         estimate D2E/DX2                !
 ! A11   A(7,6,9)              109.4713         estimate D2E/DX2                !
 ! A12   A(8,6,9)              109.4712         estimate D2E/DX2                !
 ! A13   A(6,9,10)             109.5            estimate D2E/DX2                !
 ! D1    D(3,1,2,5)           -179.9988         estimate D2E/DX2                !
 ! D2    D(3,1,2,6)              0.0016         estimate D2E/DX2                !
 ! D3    D(4,1,2,5)             -0.0002         estimate D2E/DX2                !
 ! D4    D(4,1,2,6)           -179.9998         estimate D2E/DX2                !
 ! D5    D(1,2,6,7)            -60.1113         estimate D2E/DX2                !
 ! D6    D(1,2,6,8)             59.8887         estimate D2E/DX2                !
 ! D7    D(1,2,6,9)            179.8887         estimate D2E/DX2                !
 ! D8    D(5,2,6,7)            119.8891         estimate D2E/DX2                !
 ! D9    D(5,2,6,8)           -120.1109         estimate D2E/DX2                !
 ! D10   D(5,2,6,9)             -0.1109         estimate D2E/DX2                !
 ! D11   D(2,6,9,10)           179.9796         estimate D2E/DX2                !
 ! D12   D(7,6,9,10)            59.9796         estimate D2E/DX2                !
 ! D13   D(8,6,9,10)           -60.0204         estimate D2E/DX2                !
 --------------------------------------------------------------------------------
 Trust Radius=3.00D-01 FncErr=1.00D-07 GrdErr=1.00D-06 EigMax=2.50D+02 EigMin=1.00D-04
 Number of steps in this run=     45 maximum allowed number of steps=    100.
 GradGradGradGradGradGradGradGradGradGradGradGradGradGradGradGradGradGrad

                          Input orientation:                          
 ---------------------------------------------------------------------
 Center     Atomic      Atomic             Coordinates (Angstroms)
 Number     Number       Type             X           Y           Z
 ---------------------------------------------------------------------
      1          6           0       -1.948718   -0.897436    0.000000
      2          6           0       -0.622802   -0.897436    0.000000
      3          1           0       -2.542303    0.026602    0.000000
      4          1           0       -2.542334   -1.821450   -0.000022
      5          1           0       -0.029217   -1.821474   -0.000019
      6          6           0        0.209575    0.398230    0.000036
      7          1           0       -0.020592    0.970046   -0.874577
      8          1           0       -0.023447    0.971832    0.872722
      9          8           0        1.601523    0.070553    0.002647
     10          1           0        2.120814    0.877979    0.002348
 ---------------------------------------------------------------------
                    Distance matrix (angstroms):
                    1          2          3          4          5
     1  C    0.000000
     2  C    1.325916   0.000000
     3  H    1.098267   2.130336   0.000000
     4  H    1.098263   2.130353   1.848052   0.000000
     5  H    2.130336   1.098267   3.119453   2.513117   0.000000
     6  C    2.517335   1.540000   2.776858   3.535531   2.232511
     7  H    2.823127   2.148263   2.830901   3.862186   2.925323
     8  H    2.821786   2.148263   2.828381   3.861204   2.926477
     9  O    3.679840   2.425826   4.144060   4.555352   2.497816
    10  H    4.439954   3.267955   4.740201   5.388123   3.451041
                    6          7          8          9         10
     6  C    0.000000
     7  H    1.070000   0.000000
     8  H    1.070000   1.747303   0.000000
     9  O    1.430000   2.051796   2.051796   0.000000
    10  H    1.970533   2.315835   2.316078   0.960000   0.000000
 Stoichiometry    C3H6O
 Framework group  C1[X(C3H6O)]
 Deg. of freedom    24
 Full point group                 C1      NOp   1
 Largest Abelian subgroup         C1      NOp   1
 Largest concise Abelian subgroup C1      NOp   1
                         Standard orientation:                         
 ---------------------------------------------------------------------
 Center     Atomic      Atomic             Coordinates (Angstroms)
 Number     Number       Type             X           Y           Z
 ---------------------------------------------------------------------
      1          6           0        1.916023    0.067345   -0.000479
      2          6           0        0.679370   -0.410923    0.000565
      3          1           0        2.136338    1.143287   -0.001336
      4          1           0        2.802975   -0.580341   -0.000535
      5          1           0        0.459054   -1.486865    0.001441
      6          6           0       -0.564328    0.497271    0.000638
      7          1           0       -0.555406    1.114207    0.874829
      8          1           0       -0.554405    1.115720   -0.872473
      9          8           0       -1.744374   -0.310436   -0.000738
     10          1           0       -2.519950    0.255321   -0.000371
 ---------------------------------------------------------------------
 Rotational constants (GHZ):          34.8130886           4.0972285           3.7494787
 Standard basis: def2TZVP (5D, 7F)
 There are   180 symmetry adapted cartesian basis functions of A   symmetry.
 There are   160 symmetry adapted basis functions of A   symmetry.
   160 basis functions,   252 primitive gaussians,   180 cartesian basis functions
    16 alpha electrons       16 beta electrons
       nuclear repulsion energy       115.4695459809 Hartrees.
 NAtoms=   10 NActive=   10 NUniq=   10 SFac= 1.00D+00 NAtFMM=   60 NAOKFM=F Big=F
 Integral buffers will be    131072 words long.
 Raffenetti 2 integral format.
 Two-electron integral symmetry is turned on.
 Nuclear repulsion after empirical dispersion term =      115.4523202195 Hartrees.
 Standard density basis: Auto (5D, 7F)
   734 Density fitting functions
 There are   734 symmetry adapted density basis functions of A   symmetry.
 One-electron integrals computed using PRISM.
   1 Symmetry operations used in ECPInt.
 ECPInt:  NShTT=    2346 NPrTT=    6892 LenC2=    2329 LenP2D=    5872.
 LDataN:  DoStor=T MaxTD1= 6 Len=  172
 NBasis=   160 RedAO= T EigKep=  1.67D-04  NBF=   160
 NBsUse=   160 1.00D-06 EigRej= -1.00D+00 NBFU=   160
 NBasis=      160 NBas6D=      180 NTT=       12880   NTT6D=    16290
 NDBShl=      110 NDBF=        734 NDBF6D=      928  NNucDB=        0
 IDenFi=        2 ISolve=        0 FullAP=F BlkAPC=T NucTyp=        0
 TolInv= 1.00D-06 TolIt=  1.00D-10 IR12=0.
 FoFCou: FMM=F IPFlag=           0 FMFlag=           0 FMFlg1=           0
         NFxFlg=           0 DoJE=F BraDBF=T KetDBF=T FulRan=T
         wScrn=  0.000000 ICntrl=       600 IOpCl=  3 I1Cent=           6 NGrid=           0
         NMat0=    1 NMatS0=    928 NMatT0=    0 NMatD0=    1 NMtDS0=    0 NMtDT0=    0
 Petite list used in FoFCou.
 DBF EigKep=  1.39D-06 EigRej=  7.98D-07
 NDBF=    734  NBFD=   734
 NRank=   725 NBFDU=   725
 S*AI*S=  7.51875936160    
 ExpMin= 9.52D-02 ExpMax= 2.70D+04 ExpMxC= 9.22D+02 IAcc=3 IRadAn=         5 AccDes= 0.00D+00
 Harris functional with IExCor= 3630 and IRadAn=       5 diagonalized for initial guess.
 HarFok:  IExCor= 3630 AccDes= 0.00D+00 IRadAn=         5 IDoV= 1 UseB2=F ITyADJ=14
 ICtDFT=  3500011 ScaDFX=  1.000000  1.000000  1.000000  1.000000
 FoFCou: FMM=F IPFlag=           0 FMFlag=      100000 FMFlg1=           0
         NFxFlg=           0 DoJE=T BraDBF=F KetDBF=T FulRan=T
         wScrn=  0.000000 ICntrl=       500 IOpCl=  0 I1Cent=   200000004 NGrid=           0
         NMat0=    1 NMatS0=      1 NMatT0=    0 NMatD0=    1 NMtDS0=    0 NMtDT0=    0
 Petite list used in FoFCou.
 Requested convergence on RMS density matrix=1.00D-08 within 128 cycles.
 Requested convergence on MAX density matrix=1.00D-06.
 Requested convergence on             energy=1.00D-06.
 No special actions if energy rises.
 FoFCou: FMM=F IPFlag=           0 FMFlag=      100000 FMFlg1=           0
         NFxFlg=           0 DoJE=T BraDBF=T KetDBF=F FulRan=T
         wScrn=  0.000000 ICntrl=       500 IOpCl=  0 I1Cent=           5 NGrid=           0
         NMat0=    1 NMatS0=      1 NMatT0=    0 NMatD0=    1 NMtDS0=    0 NMtDT0=    0
 Symmetry not used in FoFCou.
 Initial convergence to 1.0D-05 achieved.  Increase integral accuracy.
 SCF Done:  E(RB97D3) =  -193.072978662     A.U. after   13 cycles
            NFock= 13  Conv=0.99D-08     -V/T= 2.0045

 **********************************************************************

            Population analysis using the SCF Density.

 **********************************************************************

 Orbital symmetries:
       Occupied  (A) (A) (A) (A) (A) (A) (A) (A) (A) (A) (A) (A)
                 (A) (A) (A) (A)
       Virtual   (A) (A) (A) (A) (A) (A) (A) (A) (A) (A) (A) (A)
                 (A) (A) (A) (A) (A) (A) (A) (A) (A) (A) (A) (A)
                 (A) (A) (A) (A) (A) (A) (A) (A) (A) (A) (A) (A)
                 (A) (A) (A) (A) (A) (A) (A) (A) (A) (A) (A) (A)
                 (A) (A) (A) (A) (A) (A) (A) (A) (A) (A) (A) (A)
                 (A) (A) (A) (A) (A) (A) (A) (A) (A) (A) (A) (A)
                 (A) (A) (A) (A) (A) (A) (A) (A) (A) (A) (A) (A)
                 (A) (A) (A) (A) (A) (A) (A) (A) (A) (A) (A) (A)
                 (A) (A) (A) (A) (A) (A) (A) (A) (A) (A) (A) (A)
                 (A) (A) (A) (A) (A) (A) (A) (A) (A) (A) (A) (A)
                 (A) (A) (A) (A) (A) (A) (A) (A) (A) (A) (A) (A)
                 (A) (A) (A) (A) (A) (A) (A) (A) (A) (A) (A) (A)
 The electronic state is 1-A.
 Alpha  occ. eigenvalues --  -18.74894  -9.94790  -9.90814  -9.89607  -0.93713
 Alpha  occ. eigenvalues --   -0.71156  -0.61391  -0.50655  -0.46526  -0.41013
 Alpha  occ. eigenvalues --   -0.40477  -0.36907  -0.32366  -0.28724  -0.24728
 Alpha  occ. eigenvalues --   -0.21933
 Alpha virt. eigenvalues --   -0.02780   0.01303   0.04811   0.06537   0.08714
 Alpha virt. eigenvalues --    0.10812   0.10934   0.12510   0.16059   0.18951
 Alpha virt. eigenvalues --    0.21865   0.22187   0.23639   0.27065   0.28882
 Alpha virt. eigenvalues --    0.30781   0.31235   0.35003   0.36883   0.39165
 Alpha virt. eigenvalues --    0.39908   0.40587   0.41830   0.43032   0.45346
 Alpha virt. eigenvalues --    0.47518   0.48383   0.52514   0.55223   0.56457
 Alpha virt. eigenvalues --    0.61451   0.66596   0.69162   0.69701   0.79464
 Alpha virt. eigenvalues --    0.80245   0.85177   0.89441   0.92383   0.94048
 Alpha virt. eigenvalues --    0.98243   0.98615   1.05242   1.10045   1.13081
 Alpha virt. eigenvalues --    1.20816   1.25159   1.25901   1.32147   1.37276
 Alpha virt. eigenvalues --    1.40801   1.47411   1.47702   1.50369   1.53495
 Alpha virt. eigenvalues --    1.54432   1.58163   1.59046   1.61025   1.66797
 Alpha virt. eigenvalues --    1.71635   1.74519   1.76087   1.84663   1.86715
 Alpha virt. eigenvalues --    1.89018   1.90868   1.96035   1.98735   2.06428
 Alpha virt. eigenvalues --    2.11380   2.12608   2.16670   2.21064   2.23225
 Alpha virt. eigenvalues --    2.25476   2.27148   2.36143   2.42466   2.48187
 Alpha virt. eigenvalues --    2.48195   2.51620   2.54002   2.55111   2.61785
 Alpha virt. eigenvalues --    2.64937   2.72429   2.72480   2.76613   2.77799
 Alpha virt. eigenvalues --    2.80967   2.82012   2.88761   2.92147   2.95384
 Alpha virt. eigenvalues --    2.99834   2.99841   3.02903   3.07155   3.08882
 Alpha virt. eigenvalues --    3.09289   3.14252   3.19019   3.20565   3.31288
 Alpha virt. eigenvalues --    3.33216   3.36503   3.37474   3.41551   3.43359
 Alpha virt. eigenvalues --    3.52544   3.54718   3.67533   3.69871   3.76447
 Alpha virt. eigenvalues --    3.89981   3.90364   4.01046   4.15356   4.22180
 Alpha virt. eigenvalues --    4.23386   4.32054   4.39097   4.47910   4.57983
 Alpha virt. eigenvalues --    4.67038   4.73856   4.90361   5.12690   5.26207
 Alpha virt. eigenvalues --    5.34554   5.59181   5.65880   5.76793   6.16672
 Alpha virt. eigenvalues --    6.30711   6.54135   6.57993   6.83460   7.02693
 Alpha virt. eigenvalues --   21.85833  22.28172  22.48606  43.51452
          Condensed to atoms (all electrons):
               1          2          3          4          5          6
     1  C    4.991545   0.499782   0.395925   0.384907  -0.030677   0.001996
     2  C    0.499782   5.125819  -0.036027  -0.015285   0.394955   0.291350
     3  H    0.395925  -0.036027   0.582582  -0.042496   0.008090  -0.014282
     4  H    0.384907  -0.015285  -0.042496   0.563208  -0.010987   0.007256
     5  H   -0.030677   0.394955   0.008090  -0.010987   0.558953  -0.048685
     6  C    0.001996   0.291350  -0.014282   0.007256  -0.048685   4.640965
     7  H    0.006754  -0.060963   0.002133  -0.000337   0.004255   0.413935
     8  H    0.006816  -0.061103   0.002150  -0.000332   0.004293   0.414021
     9  O    0.005175  -0.046618   0.000157  -0.000170   0.003417   0.312090
    10  H   -0.002290   0.014489  -0.000026   0.000035  -0.000644  -0.031932
               7          8          9         10
     1  C    0.006754   0.006816   0.005175  -0.002290
     2  C   -0.060963  -0.061103  -0.046618   0.014489
     3  H    0.002133   0.002150   0.000157  -0.000026
     4  H   -0.000337  -0.000332  -0.000170   0.000035
     5  H    0.004255   0.004293   0.003417  -0.000644
     6  C    0.413935   0.414021   0.312090  -0.031932
     7  H    0.672100  -0.069369  -0.050667  -0.006142
     8  H   -0.069369   0.672002  -0.050669  -0.006124
     9  O   -0.050667  -0.050669   8.002482   0.277401
    10  H   -0.006142  -0.006124   0.277401   0.459223
 Mulliken charges:
               1
     1  C   -0.259934
     2  C   -0.106400
     3  H    0.101794
     4  H    0.114200
     5  H    0.117029
     6  C    0.013285
     7  H    0.088300
     8  H    0.088314
     9  O   -0.452598
    10  H    0.296009
 Sum of Mulliken charges =  -0.00000
 Mulliken charges with hydrogens summed into heavy atoms:
               1
     1  C   -0.043939
     2  C    0.010629
     6  C    0.189899
     9  O   -0.156589
 Electronic spatial extent (au):  <R**2>=            346.7278
 Charge=             -0.0000 electrons
 Dipole moment (field-independent basis, Debye):
    X=             -0.3443    Y=              1.5899    Z=              0.0020  Tot=              1.6268
 Quadrupole moment (field-independent basis, Debye-Ang):
   XX=            -21.7626   YY=            -24.2691   ZZ=            -27.0685
   XY=             -3.2138   XZ=             -0.0043   YZ=             -0.0031
 Traceless Quadrupole moment (field-independent basis, Debye-Ang):
   XX=              2.6041   YY=              0.0977   ZZ=             -2.7018
   XY=             -3.2138   XZ=             -0.0043   YZ=             -0.0031
 Octapole moment (field-independent basis, Debye-Ang**2):
  XXX=            -19.2575  YYY=             -1.0931  ZZZ=              0.0013  XYY=             -1.0900
  XXY=              6.1463  XXZ=             -0.0031  XZZ=             -5.3568  YZZ=              1.0818
  YYZ=             -0.0007  XYZ=             -0.0011
 Hexadecapole moment (field-independent basis, Debye-Ang**3):
 XXXX=           -285.5762 YYYY=            -67.9697 ZZZZ=            -35.7290 XXXY=            -16.1404
 XXXZ=             -0.0083 YYYX=              0.8518 YYYZ=             -0.0083 ZZZX=              0.0011
 ZZZY=              0.0007 XXYY=            -67.5574 XXZZ=            -70.2288 YYZZ=            -17.7104
 XXYZ=             -0.0051 YYXZ=              0.0003 ZZXY=             -0.2417
 N-N= 1.154523202195D+02 E-N=-6.820950956025D+02  KE= 1.922092963363D+02
   1 Symmetry operations used in ECPInt.
 ECPInt:  NShTT=    2346 NPrTT=    6892 LenC2=    2329 LenP2D=    5872.
 LDataN:  DoStor=T MaxTD1= 7 Len=  274
 Calling FoFJK, ICntrl=      2527 FMM=F ISym2X=0 I1Cent= 4 IOpClX= 0 NMat=1 NMatS=1 NMatT=0.
 ***** Axes restored to original set *****
 -------------------------------------------------------------------
 Center     Atomic                   Forces (Hartrees/Bohr)
 Number     Number              X              Y              Z
 -------------------------------------------------------------------
      1        6          -0.014894232   -0.004208415    0.000000554
      2        6           0.017639145    0.010750694    0.000015606
      3        1           0.004899244   -0.003143833    0.000006240
      4        1           0.005860019    0.004545743   -0.000006703
      5        1          -0.004469848    0.004231686   -0.000003674
      6        6           0.004590278   -0.028273023    0.000037700
      7        1          -0.007255216    0.011495720   -0.015635258
      8        1          -0.007313392    0.011527469    0.015576818
      9        8           0.000850943   -0.012059943    0.000016080
     10        1           0.000093059    0.005133901   -0.000007362
 -------------------------------------------------------------------
 Cartesian Forces:  Max     0.028273023 RMS     0.009388410

 GradGradGradGradGradGradGradGradGradGradGradGradGradGradGradGradGradGrad
 Berny optimization.
 FormGI is forming the generalized inverse of G from B-inverse, IUseBI=4.
 Internal  Forces:  Max     0.020484271 RMS     0.006307846
 Search for a local minimum.
 Step number   1 out of a maximum of   45
 All quantities printed in internal units (Hartrees-Bohrs-Radians)
 Mixed Optimization -- RFO/linear search
 Second derivative matrix not updated -- first step.
 ITU=  0
     Eigenvalues ---    0.00237   0.01295   0.01477   0.03069   0.03069
     Eigenvalues ---    0.06248   0.07241   0.11346   0.13882   0.16000
     Eigenvalues ---    0.16000   0.16000   0.16000   0.22000   0.22113
     Eigenvalues ---    0.28519   0.33875   0.33875   0.33875   0.37230
     Eigenvalues ---    0.37230   0.40989   0.55473   0.60481
 RFO step:  Lambda=-4.34953992D-03 EMin= 2.36824184D-03
 Linear search not attempted -- first point.
 Iteration  1 RMS(Cart)=  0.03129737 RMS(Int)=  0.00035796
 Iteration  2 RMS(Cart)=  0.00036453 RMS(Int)=  0.00013830
 Iteration  3 RMS(Cart)=  0.00000007 RMS(Int)=  0.00013830
 Variable       Old X    -DE/DX   Delta X   Delta X   Delta X     New X
                                 (Linear)    (Quad)   (Total)
    R1        2.50562   0.00413   0.00000   0.00679   0.00679   2.51241
    R2        2.07542  -0.00529   0.00000  -0.01543  -0.01543   2.06000
    R3        2.07542  -0.00699   0.00000  -0.02038  -0.02038   2.05504
    R4        2.07542  -0.00598   0.00000  -0.01742  -0.01742   2.05800
    R5        2.91018  -0.01513   0.00000  -0.05225  -0.05225   2.85793
    R6        2.02201   0.02048   0.00000   0.05439   0.05439   2.07639
    R7        2.02201   0.02048   0.00000   0.05437   0.05437   2.07637
    R8        2.70231   0.00251   0.00000   0.00605   0.00605   2.70836
    R9        1.81414   0.00437   0.00000   0.00781   0.00781   1.82195
    A1        2.14180  -0.00164   0.00000  -0.00999  -0.00999   2.13181
    A2        2.14183  -0.00175   0.00000  -0.01062  -0.01062   2.13121
    A3        1.99956   0.00339   0.00000   0.02061   0.02061   2.02016
    A4        2.14180  -0.00340   0.00000  -0.01764  -0.01764   2.12416
    A5        2.14183   0.00374   0.00000   0.01666   0.01666   2.15850
    A6        1.99956  -0.00034   0.00000   0.00097   0.00097   2.00053
    A7        1.91063   0.00041   0.00000  -0.00563  -0.00550   1.90513
    A8        1.91063   0.00040   0.00000  -0.00562  -0.00549   1.90515
    A9        1.91063  -0.00757   0.00000  -0.03170  -0.03161   1.87903
   A10        1.91063  -0.00165   0.00000  -0.01273  -0.01311   1.89752
   A11        1.91063   0.00420   0.00000   0.02781   0.02761   1.93824
   A12        1.91063   0.00421   0.00000   0.02787   0.02767   1.93830
   A13        1.91114  -0.00490   0.00000  -0.02979  -0.02979   1.88135
    D1       -3.14157  -0.00000   0.00000  -0.00005  -0.00005   3.14156
    D2        0.00003  -0.00001   0.00000  -0.00026  -0.00026  -0.00023
    D3       -0.00000  -0.00000   0.00000  -0.00007  -0.00007  -0.00007
    D4       -3.14159  -0.00001   0.00000  -0.00027  -0.00027   3.14132
    D5       -1.04914   0.00076   0.00000   0.01085   0.01088  -1.03826
    D6        1.04525  -0.00076   0.00000  -0.01163  -0.01166   1.03359
    D7        3.13965   0.00000   0.00000  -0.00035  -0.00035   3.13930
    D8        2.09246   0.00075   0.00000   0.01066   0.01069   2.10315
    D9       -2.09633  -0.00077   0.00000  -0.01182  -0.01185  -2.10819
   D10       -0.00194  -0.00000   0.00000  -0.00054  -0.00054  -0.00248
   D11        3.14124  -0.00000   0.00000  -0.00003  -0.00003   3.14121
   D12        1.04684   0.00157   0.00000   0.00925   0.00969   1.05653
   D13       -1.04755  -0.00157   0.00000  -0.00926  -0.00971  -1.05726
         Item               Value     Threshold  Converged?
 Maximum Force            0.020484     0.000450     NO 
 RMS     Force            0.006308     0.000300     NO 
 Maximum Displacement     0.082205     0.001800     NO 
 RMS     Displacement     0.031322     0.001200     NO 
 Predicted change in Energy=-2.209764D-03
 GradGradGradGradGradGradGradGradGradGradGradGradGradGradGradGradGradGrad

                          Input orientation:                          
 ---------------------------------------------------------------------
 Center     Atomic      Atomic             Coordinates (Angstroms)
 Number     Number       Type             X           Y           Z
 ---------------------------------------------------------------------
      1          6           0       -1.941110   -0.894736    0.000134
      2          6           0       -0.611784   -0.872748   -0.000008
      3          1           0       -2.536281    0.018553    0.000443
      4          1           0       -2.503832   -1.825303   -0.000089
      5          1           0       -0.024186   -1.789675   -0.000290
      6          6           0        0.205807    0.399556   -0.000048
      7          1           0       -0.042707    0.987810   -0.894203
      8          1           0       -0.046008    0.989997    0.891727
      9          8           0        1.589750    0.027052    0.002923
     10          1           0        2.112850    0.836942    0.002547
 ---------------------------------------------------------------------
                    Distance matrix (angstroms):
                    1          2          3          4          5
     1  C    0.000000
     2  C    1.329508   0.000000
     3  H    1.090103   2.120873   0.000000
     4  H    1.087479   2.118303   1.844142   0.000000
     5  H    2.115541   1.089049   3.095207   2.479901   0.000000
     6  C    2.506880   1.512353   2.768431   3.506015   2.201279
     7  H    2.819175   2.141286   2.820950   3.843199   2.917850
     8  H    2.817547   2.141287   2.817720   3.842154   2.919374
     9  O    3.649202   2.378318   4.126040   4.493177   2.430082
    10  H    4.408322   3.216625   4.720612   5.329287   3.386155
                    6          7          8          9         10
     6  C    0.000000
     7  H    1.098779   0.000000
     8  H    1.098769   1.785934   0.000000
     9  O    1.433201   2.095903   2.095934   0.000000
    10  H    1.956559   2.339519   2.339815   0.964135   0.000000
 Stoichiometry    C3H6O
 Framework group  C1[X(C3H6O)]
 Deg. of freedom    24
 Full point group                 C1      NOp   1
 Largest Abelian subgroup         C1      NOp   1
 Largest concise Abelian subgroup C1      NOp   1
                         Standard orientation:                         
 ---------------------------------------------------------------------
 Center     Atomic      Atomic             Coordinates (Angstroms)
 Number     Number       Type             X           Y           Z
 ---------------------------------------------------------------------
      1          6           0        1.906560    0.051362   -0.000579
      2          6           0        0.653964   -0.394278    0.000649
      3          1           0        2.143606    1.115378   -0.001813
      4          1           0        2.759911   -0.622731   -0.000380
      5          1           0        0.425285   -1.459047    0.001851
      6          6           0       -0.557924    0.510453    0.000762
      7          1           0       -0.530971    1.149156    0.894433
      8          1           0       -0.529731    1.151052   -0.891500
      9          8           0       -1.723309   -0.323778   -0.000890
     10          1           0       -2.497231    0.251200   -0.000466
 ---------------------------------------------------------------------
 Rotational constants (GHZ):          34.2465702           4.1796781           3.8154524
 Standard basis: def2TZVP (5D, 7F)
 There are   180 symmetry adapted cartesian basis functions of A   symmetry.
 There are   160 symmetry adapted basis functions of A   symmetry.
   160 basis functions,   252 primitive gaussians,   180 cartesian basis functions
    16 alpha electrons       16 beta electrons
       nuclear repulsion energy       115.8975232915 Hartrees.
 NAtoms=   10 NActive=   10 NUniq=   10 SFac= 1.00D+00 NAtFMM=   60 NAOKFM=F Big=F
 Integral buffers will be    131072 words long.
 Raffenetti 2 integral format.
 Two-electron integral symmetry is turned on.
 Nuclear repulsion after empirical dispersion term =      115.8802042516 Hartrees.
 Standard density basis: Auto (5D, 7F)
   734 Density fitting functions
 There are   734 symmetry adapted density basis functions of A   symmetry.
 One-electron integrals computed using PRISM.
   1 Symmetry operations used in ECPInt.
 ECPInt:  NShTT=    2346 NPrTT=    6892 LenC2=    2330 LenP2D=    5878.
 LDataN:  DoStor=T MaxTD1= 6 Len=  172
 NBasis=   160 RedAO= T EigKep=  1.66D-04  NBF=   160
 NBsUse=   160 1.00D-06 EigRej= -1.00D+00 NBFU=   160
 NBasis=      160 NBas6D=      180 NTT=       12880   NTT6D=    16290
 NDBShl=      110 NDBF=        734 NDBF6D=      928  NNucDB=        0
 IDenFi=        2 ISolve=        0 FullAP=F BlkAPC=T NucTyp=        0
 TolInv= 1.00D-06 TolIt=  1.00D-10 IR12=0.
 FoFCou: FMM=F IPFlag=           0 FMFlag=           0 FMFlg1=           0
         NFxFlg=           0 DoJE=F BraDBF=T KetDBF=T FulRan=T
         wScrn=  0.000000 ICntrl=       600 IOpCl=  3 I1Cent=           6 NGrid=           0
         NMat0=    1 NMatS0=    928 NMatT0=    0 NMatD0=    1 NMtDS0=    0 NMtDT0=    0
 Petite list used in FoFCou.
 DBF EigKep=  1.31D-06 EigRej=  6.97D-07
 NDBF=    734  NBFD=   734
 NRank=   725 NBFDU=   725
 S*AI*S=  7.50997911631    
 Initial guess from the checkpoint file:  "/home/monty/scratch/Gau-143164.chk"
 B after Tr=     0.000000    0.000000    0.000000
         Rot=    0.999998    0.000010    0.000005    0.002123 Ang=   0.24 deg.
 Recovered     1 saved fitting vectors from chk file.
 ExpMin= 9.52D-02 ExpMax= 2.70D+04 ExpMxC= 9.22D+02 IAcc=3 IRadAn=         5 AccDes= 0.00D+00
 Harris functional with IExCor= 3630 and IRadAn=       5 diagonalized for initial guess.
 HarFok:  IExCor= 3630 AccDes= 0.00D+00 IRadAn=         5 IDoV= 1 UseB2=F ITyADJ=14
 ICtDFT=  3500011 ScaDFX=  1.000000  1.000000  1.000000  1.000000
 FoFCou: FMM=F IPFlag=           0 FMFlag=      100000 FMFlg1=           0
         NFxFlg=           0 DoJE=T BraDBF=F KetDBF=T FulRan=T
         wScrn=  0.000000 ICntrl=       500 IOpCl=  0 I1Cent=   200000004 NGrid=           0
         NMat0=    1 NMatS0=      1 NMatT0=    0 NMatD0=    1 NMtDS0=    0 NMtDT0=    0
 Petite list used in FoFCou.
 Requested convergence on RMS density matrix=1.00D-08 within 128 cycles.
 Requested convergence on MAX density matrix=1.00D-06.
 Requested convergence on             energy=1.00D-06.
 No special actions if energy rises.
 FoFCou: FMM=F IPFlag=           0 FMFlag=      100000 FMFlg1=           0
         NFxFlg=           0 DoJE=T BraDBF=T KetDBF=F FulRan=T
         wScrn=  0.000000 ICntrl=       500 IOpCl=  0 I1Cent=           5 NGrid=           0
         NMat0=    1 NMatS0=      1 NMatT0=    0 NMatD0=    1 NMtDS0=    0 NMtDT0=    0
 Symmetry not used in FoFCou.
 Initial convergence to 1.0D-05 achieved.  Increase integral accuracy.
 SCF Done:  E(RB97D3) =  -193.075299906     A.U. after   12 cycles
            NFock= 12  Conv=0.16D-08     -V/T= 2.0046
   1 Symmetry operations used in ECPInt.
 ECPInt:  NShTT=    2346 NPrTT=    6892 LenC2=    2330 LenP2D=    5878.
 LDataN:  DoStor=T MaxTD1= 7 Len=  274
 Calling FoFJK, ICntrl=      2527 FMM=F ISym2X=0 I1Cent= 4 IOpClX= 0 NMat=1 NMatS=1 NMatT=0.
 ***** Axes restored to original set *****
 -------------------------------------------------------------------
 Center     Atomic                   Forces (Hartrees/Bohr)
 Number     Number              X              Y              Z
 -------------------------------------------------------------------
      1        6          -0.004503796   -0.002211046    0.000004850
      2        6           0.002422463    0.004612615   -0.000000808
      3        1           0.000977057    0.000331518    0.000002863
      4        1           0.001285856   -0.000192024   -0.000001692
      5        1          -0.000773967   -0.000538924   -0.000006701
      6        6           0.000037452   -0.009083571    0.000014984
      7        1           0.000198928    0.002671210   -0.000903871
      8        1           0.000189765    0.002679013    0.000889197
      9        8          -0.000933855    0.000777722    0.000000508
     10        1           0.001100096    0.000953487    0.000000670
 -------------------------------------------------------------------
 Cartesian Forces:  Max     0.009083571 RMS     0.002295406

 GradGradGradGradGradGradGradGradGradGradGradGradGradGradGradGradGradGrad
 Berny optimization.
 Using GEDIIS/GDIIS optimizer.
 FormGI is forming the generalized inverse of G from B-inverse, IUseBI=4.
 Internal  Forces:  Max     0.003031202 RMS     0.001223819
 Search for a local minimum.
 Step number   2 out of a maximum of   45
 All quantities printed in internal units (Hartrees-Bohrs-Radians)
 Mixed Optimization -- RFO/linear search
 Update second derivatives using D2CorX and points    1    2
 DE= -2.32D-03 DEPred=-2.21D-03 R= 1.05D+00
 TightC=F SS=  1.41D+00  RLast= 1.24D-01 DXNew= 5.0454D-01 3.7126D-01
 Trust test= 1.05D+00 RLast= 1.24D-01 DXMaxT set to 3.71D-01
 ITU=  1  0
 Use linear search instead of GDIIS.
     Eigenvalues ---    0.00237   0.01295   0.01461   0.03069   0.03069
     Eigenvalues ---    0.06441   0.07233   0.11508   0.13752   0.15380
     Eigenvalues ---    0.16000   0.16000   0.16249   0.20857   0.22938
     Eigenvalues ---    0.28493   0.33801   0.33875   0.34074   0.35677
     Eigenvalues ---    0.37230   0.41059   0.55310   0.60311
 RFO step:  Lambda=-2.87703868D-04 EMin= 2.36823175D-03
 Quartic linear search produced a step of  0.08286.
 Iteration  1 RMS(Cart)=  0.01104445 RMS(Int)=  0.00009623
 Iteration  2 RMS(Cart)=  0.00008738 RMS(Int)=  0.00004681
 Iteration  3 RMS(Cart)=  0.00000001 RMS(Int)=  0.00004681
 Variable       Old X    -DE/DX   Delta X   Delta X   Delta X     New X
                                 (Linear)    (Quad)   (Total)
    R1        2.51241   0.00227   0.00056   0.00397   0.00453   2.51693
    R2        2.06000  -0.00026  -0.00128  -0.00059  -0.00187   2.05813
    R3        2.05504  -0.00050  -0.00169  -0.00130  -0.00299   2.05205
    R4        2.05800   0.00004  -0.00144   0.00037  -0.00107   2.05694
    R5        2.85793  -0.00136  -0.00433  -0.00440  -0.00873   2.84920
    R6        2.07639   0.00212   0.00451   0.00535   0.00985   2.08625
    R7        2.07637   0.00212   0.00450   0.00534   0.00985   2.08622
    R8        2.70836  -0.00029   0.00050  -0.00085  -0.00035   2.70800
    R9        1.82195   0.00140   0.00065   0.00261   0.00326   1.82521
    A1        2.13181  -0.00055  -0.00083  -0.00358  -0.00441   2.12740
    A2        2.13121  -0.00096  -0.00088  -0.00631  -0.00719   2.12402
    A3        2.02016   0.00151   0.00171   0.00989   0.01160   2.03176
    A4        2.12416  -0.00249  -0.00146  -0.01374  -0.01520   2.10896
    A5        2.15850   0.00303   0.00138   0.01465   0.01603   2.17453
    A6        2.00053  -0.00055   0.00008  -0.00091  -0.00083   1.99970
    A7        1.90513   0.00098  -0.00046   0.01135   0.01089   1.91602
    A8        1.90515   0.00098  -0.00045   0.01139   0.01093   1.91608
    A9        1.87903   0.00171  -0.00262   0.01188   0.00922   1.88825
   A10        1.89752  -0.00128  -0.00109  -0.01711  -0.01832   1.87921
   A11        1.93824  -0.00115   0.00229  -0.00822  -0.00605   1.93220
   A12        1.93830  -0.00115   0.00229  -0.00820  -0.00603   1.93227
   A13        1.88135   0.00074  -0.00247   0.00543   0.00296   1.88430
    D1        3.14156  -0.00000  -0.00000  -0.00007  -0.00007   3.14149
    D2       -0.00023  -0.00000  -0.00002  -0.00010  -0.00013  -0.00036
    D3       -0.00007  -0.00000  -0.00001  -0.00003  -0.00003  -0.00010
    D4        3.14132  -0.00000  -0.00002  -0.00006  -0.00009   3.14124
    D5       -1.03826   0.00019   0.00090   0.00162   0.00255  -1.03570
    D6        1.03359  -0.00020  -0.00097  -0.00576  -0.00676   1.02684
    D7        3.13930  -0.00000  -0.00003  -0.00205  -0.00208   3.13722
    D8        2.10315   0.00019   0.00089   0.00158   0.00250   2.10565
    D9       -2.10819  -0.00020  -0.00098  -0.00580  -0.00681  -2.11500
   D10       -0.00248  -0.00000  -0.00005  -0.00209  -0.00213  -0.00461
   D11        3.14121  -0.00000  -0.00000  -0.00001  -0.00001   3.14120
   D12        1.05653  -0.00159   0.00080  -0.01644  -0.01552   1.04101
   D13       -1.05726   0.00159  -0.00080   0.01649   0.01556  -1.04169
         Item               Value     Threshold  Converged?
 Maximum Force            0.003031     0.000450     NO 
 RMS     Force            0.001224     0.000300     NO 
 Maximum Displacement     0.023337     0.001800     NO 
 RMS     Displacement     0.011054     0.001200     NO 
 Predicted change in Energy=-1.564146D-04
 GradGradGradGradGradGradGradGradGradGradGradGradGradGradGradGradGradGrad

                          Input orientation:                          
 ---------------------------------------------------------------------
 Center     Atomic      Atomic             Coordinates (Angstroms)
 Number     Number       Type             X           Y           Z
 ---------------------------------------------------------------------
      1          6           0       -1.948816   -0.899267    0.000643
      2          6           0       -0.617317   -0.866435   -0.000527
      3          1           0       -2.546825    0.010984    0.002063
      4          1           0       -2.496433   -1.836973    0.000230
      5          1           0       -0.036536   -1.787026   -0.001847
      6          6           0        0.207794    0.395489   -0.000493
      7          1           0       -0.031920    0.998629   -0.893557
      8          1           0       -0.036900    1.001895    0.888982
      9          8           0        1.592037    0.024840    0.003997
     10          1           0        2.117414    0.835309    0.003644
 ---------------------------------------------------------------------
                    Distance matrix (angstroms):
                    1          2          3          4          5
     1  C    0.000000
     2  C    1.331904   0.000000
     3  H    1.089116   2.119640   0.000000
     4  H    1.085900   2.114952   1.848645   0.000000
     5  H    2.108302   1.088483   3.087783   2.460405   0.000000
     6  C    2.515424   1.507733   2.781326   3.506669   2.196149
     7  H    2.841847   2.149105   2.846458   3.861777   2.924900
     8  H    2.838835   2.149131   2.840467   3.859838   2.927739
     9  O    3.659457   2.382359   4.138886   4.492433   2.436215
    10  H    4.420745   3.220978   4.736522   5.331856   3.393548
                    6          7          8          9         10
     6  C    0.000000
     7  H    1.103994   0.000000
     8  H    1.103979   1.782549   0.000000
     9  O    1.433015   2.095496   2.095536   0.000000
    10  H    1.959619   2.334797   2.335090   0.965857   0.000000
 Stoichiometry    C3H6O
 Framework group  C1[X(C3H6O)]
 Deg. of freedom    24
 Full point group                 C1      NOp   1
 Largest Abelian subgroup         C1      NOp   1
 Largest concise Abelian subgroup C1      NOp   1
                         Standard orientation:                         
 ---------------------------------------------------------------------
 Center     Atomic      Atomic             Coordinates (Angstroms)
 Number     Number       Type             X           Y           Z
 ---------------------------------------------------------------------
      1          6           0        1.913886    0.050390   -0.001101
      2          6           0        0.655504   -0.386003    0.001256
      3          1           0        2.154532    1.112585   -0.003440
      4          1           0        2.755677   -0.635587   -0.000791
      5          1           0        0.434619   -1.451836    0.003484
      6          6           0       -0.559889    0.506229    0.001439
      7          1           0       -0.546394    1.155763    0.894035
      8          1           0       -0.544119    1.159308   -0.888509
      9          8           0       -1.726111   -0.326507   -0.001648
     10          1           0       -2.502435    0.248124   -0.001159
 ---------------------------------------------------------------------
 Rotational constants (GHZ):          34.4527506           4.1580540           3.7996038
 Standard basis: def2TZVP (5D, 7F)
 There are   180 symmetry adapted cartesian basis functions of A   symmetry.
 There are   160 symmetry adapted basis functions of A   symmetry.
   160 basis functions,   252 primitive gaussians,   180 cartesian basis functions
    16 alpha electrons       16 beta electrons
       nuclear repulsion energy       115.7846854603 Hartrees.
 NAtoms=   10 NActive=   10 NUniq=   10 SFac= 1.00D+00 NAtFMM=   60 NAOKFM=F Big=F
 Integral buffers will be    131072 words long.
 Raffenetti 2 integral format.
 Two-electron integral symmetry is turned on.
 Nuclear repulsion after empirical dispersion term =      115.7674072597 Hartrees.
 Standard density basis: Auto (5D, 7F)
   734 Density fitting functions
 There are   734 symmetry adapted density basis functions of A   symmetry.
 One-electron integrals computed using PRISM.
   1 Symmetry operations used in ECPInt.
 ECPInt:  NShTT=    2346 NPrTT=    6892 LenC2=    2330 LenP2D=    5877.
 LDataN:  DoStor=T MaxTD1= 6 Len=  172
 NBasis=   160 RedAO= T EigKep=  1.67D-04  NBF=   160
 NBsUse=   160 1.00D-06 EigRej= -1.00D+00 NBFU=   160
 NBasis=      160 NBas6D=      180 NTT=       12880   NTT6D=    16290
 NDBShl=      110 NDBF=        734 NDBF6D=      928  NNucDB=        0
 IDenFi=        2 ISolve=        0 FullAP=F BlkAPC=T NucTyp=        0
 TolInv= 1.00D-06 TolIt=  1.00D-10 IR12=0.
 FoFCou: FMM=F IPFlag=           0 FMFlag=           0 FMFlg1=           0
         NFxFlg=           0 DoJE=F BraDBF=T KetDBF=T FulRan=T
         wScrn=  0.000000 ICntrl=       600 IOpCl=  3 I1Cent=           6 NGrid=           0
         NMat0=    1 NMatS0=    928 NMatT0=    0 NMatD0=    1 NMtDS0=    0 NMtDT0=    0
 Petite list used in FoFCou.
 DBF EigKep=  1.32D-06 EigRej=  7.06D-07
 NDBF=    734  NBFD=   734
 NRank=   725 NBFDU=   725
 S*AI*S=  7.51127865832    
 Initial guess from the checkpoint file:  "/home/monty/scratch/Gau-143164.chk"
 B after Tr=    -0.000000   -0.000000   -0.000000
         Rot=    1.000000   -0.000119    0.000014   -0.000436 Ang=  -0.05 deg.
 Recovered     1 saved fitting vectors from chk file.
 ExpMin= 9.52D-02 ExpMax= 2.70D+04 ExpMxC= 9.22D+02 IAcc=3 IRadAn=         5 AccDes= 0.00D+00
 Harris functional with IExCor= 3630 and IRadAn=       5 diagonalized for initial guess.
 HarFok:  IExCor= 3630 AccDes= 0.00D+00 IRadAn=         5 IDoV= 1 UseB2=F ITyADJ=14
 ICtDFT=  3500011 ScaDFX=  1.000000  1.000000  1.000000  1.000000
 FoFCou: FMM=F IPFlag=           0 FMFlag=      100000 FMFlg1=           0
         NFxFlg=           0 DoJE=T BraDBF=F KetDBF=T FulRan=T
         wScrn=  0.000000 ICntrl=       500 IOpCl=  0 I1Cent=   200000004 NGrid=           0
         NMat0=    1 NMatS0=      1 NMatT0=    0 NMatD0=    1 NMtDS0=    0 NMtDT0=    0
 Petite list used in FoFCou.
 Requested convergence on RMS density matrix=1.00D-08 within 128 cycles.
 Requested convergence on MAX density matrix=1.00D-06.
 Requested convergence on             energy=1.00D-06.
 No special actions if energy rises.
 FoFCou: FMM=F IPFlag=           0 FMFlag=      100000 FMFlg1=           0
         NFxFlg=           0 DoJE=T BraDBF=T KetDBF=F FulRan=T
         wScrn=  0.000000 ICntrl=       500 IOpCl=  0 I1Cent=           5 NGrid=           0
         NMat0=    1 NMatS0=      1 NMatT0=    0 NMatD0=    1 NMtDS0=    0 NMtDT0=    0
 Symmetry not used in FoFCou.
 Initial convergence to 1.0D-05 achieved.  Increase integral accuracy.
 SCF Done:  E(RB97D3) =  -193.075475233     A.U. after   10 cycles
            NFock= 10  Conv=0.69D-08     -V/T= 2.0047
   1 Symmetry operations used in ECPInt.
 ECPInt:  NShTT=    2346 NPrTT=    6892 LenC2=    2330 LenP2D=    5877.
 LDataN:  DoStor=T MaxTD1= 7 Len=  274
 Calling FoFJK, ICntrl=      2527 FMM=F ISym2X=0 I1Cent= 4 IOpClX= 0 NMat=1 NMatS=1 NMatT=0.
 ***** Axes restored to original set *****
 -------------------------------------------------------------------
 Center     Atomic                   Forces (Hartrees/Bohr)
 Number     Number              X              Y              Z
 -------------------------------------------------------------------
      1        6          -0.000321027   -0.000045185    0.000011318
      2        6           0.000336872    0.001824761    0.000008194
      3        1          -0.000023628    0.000335076    0.000005663
      4        1           0.000296876   -0.000507471   -0.000007484
      5        1           0.000157537   -0.000694907   -0.000014210
      6        6          -0.000054628   -0.000899041    0.000013664
      7        1           0.000058816    0.000002147    0.000676620
      8        1           0.000048387    0.000005972   -0.000696086
      9        8          -0.000188171    0.000335184    0.000003340
     10        1          -0.000311034   -0.000356537   -0.000001018
 -------------------------------------------------------------------
 Cartesian Forces:  Max     0.001824761 RMS     0.000470684

 GradGradGradGradGradGradGradGradGradGradGradGradGradGradGradGradGradGrad
 Berny optimization.
 Using GEDIIS/GDIIS optimizer.
 FormGI is forming the generalized inverse of G from B-inverse, IUseBI=4.
 Internal  Forces:  Max     0.001008057 RMS     0.000359410
 Search for a local minimum.
 Step number   3 out of a maximum of   45
 All quantities printed in internal units (Hartrees-Bohrs-Radians)
 Mixed Optimization -- En-DIIS/RFO-DIIS
 Update second derivatives using D2CorX and points    1    2    3
 DE= -1.75D-04 DEPred=-1.56D-04 R= 1.12D+00
 TightC=F SS=  1.41D+00  RLast= 4.84D-02 DXNew= 6.2438D-01 1.4533D-01
 Trust test= 1.12D+00 RLast= 4.84D-02 DXMaxT set to 3.71D-01
 ITU=  1  1  0
 Use linear search instead of GDIIS.
     Eigenvalues ---    0.00237   0.01295   0.01448   0.03069   0.03069
     Eigenvalues ---    0.06309   0.06639   0.10787   0.13815   0.14338
     Eigenvalues ---    0.16000   0.16060   0.16323   0.19898   0.23458
     Eigenvalues ---    0.28390   0.33811   0.33875   0.34218   0.37230
     Eigenvalues ---    0.39024   0.41520   0.56000   0.60440
 RFO step:  Lambda=-1.94729928D-05 EMin= 2.36637364D-03
 Quartic linear search produced a step of  0.13429.
 Iteration  1 RMS(Cart)=  0.00470278 RMS(Int)=  0.00001470
 Iteration  2 RMS(Cart)=  0.00001609 RMS(Int)=  0.00000516
 Iteration  3 RMS(Cart)=  0.00000000 RMS(Int)=  0.00000516
 Variable       Old X    -DE/DX   Delta X   Delta X   Delta X     New X
                                 (Linear)    (Quad)   (Total)
    R1        2.51693   0.00005   0.00061  -0.00013   0.00047   2.51741
    R2        2.05813   0.00029  -0.00025   0.00092   0.00067   2.05880
    R3        2.05205   0.00029  -0.00040   0.00092   0.00052   2.05257
    R4        2.05694   0.00067  -0.00014   0.00210   0.00196   2.05889
    R5        2.84920  -0.00101  -0.00117  -0.00403  -0.00520   2.84400
    R6        2.08625  -0.00056   0.00132  -0.00171  -0.00039   2.08586
    R7        2.08622  -0.00057   0.00132  -0.00174  -0.00042   2.08580
    R8        2.70800  -0.00048  -0.00005  -0.00121  -0.00126   2.70674
    R9        1.82521  -0.00047   0.00044  -0.00109  -0.00065   1.82456
    A1        2.12740   0.00012  -0.00059   0.00106   0.00047   2.12788
    A2        2.12402  -0.00059  -0.00097  -0.00378  -0.00475   2.11927
    A3        2.03176   0.00046   0.00156   0.00272   0.00428   2.03604
    A4        2.10896  -0.00058  -0.00204  -0.00262  -0.00466   2.10430
    A5        2.17453   0.00067   0.00215   0.00255   0.00471   2.17923
    A6        1.99970  -0.00009  -0.00011   0.00006  -0.00005   1.99965
    A7        1.91602   0.00022   0.00146   0.00084   0.00230   1.91833
    A8        1.91608   0.00022   0.00147   0.00089   0.00236   1.91843
    A9        1.88825  -0.00028   0.00124  -0.00180  -0.00057   1.88768
   A10        1.87921  -0.00036  -0.00246  -0.00318  -0.00565   1.87356
   A11        1.93220   0.00010  -0.00081   0.00161   0.00078   1.93298
   A12        1.93227   0.00010  -0.00081   0.00169   0.00086   1.93313
   A13        1.88430  -0.00012   0.00040  -0.00144  -0.00105   1.88326
    D1        3.14149  -0.00000  -0.00001  -0.00003  -0.00004   3.14145
    D2       -0.00036  -0.00001  -0.00002  -0.00030  -0.00032  -0.00067
    D3       -0.00010  -0.00000  -0.00000  -0.00008  -0.00009  -0.00019
    D4        3.14124  -0.00001  -0.00001  -0.00035  -0.00036   3.14088
    D5       -1.03570   0.00007   0.00034  -0.00276  -0.00241  -1.03812
    D6        1.02684  -0.00009  -0.00091  -0.00560  -0.00651   1.02033
    D7        3.13722  -0.00001  -0.00028  -0.00412  -0.00439   3.13282
    D8        2.10565   0.00007   0.00034  -0.00301  -0.00267   2.10298
    D9       -2.11500  -0.00010  -0.00091  -0.00585  -0.00677  -2.12177
   D10       -0.00461  -0.00001  -0.00029  -0.00437  -0.00465  -0.00927
   D11        3.14120  -0.00000  -0.00000  -0.00009  -0.00009   3.14111
   D12        1.04101  -0.00016  -0.00208  -0.00095  -0.00302   1.03799
   D13       -1.04169   0.00016   0.00209   0.00089   0.00297  -1.03873
         Item               Value     Threshold  Converged?
 Maximum Force            0.001008     0.000450     NO 
 RMS     Force            0.000359     0.000300     NO 
 Maximum Displacement     0.011456     0.001800     NO 
 RMS     Displacement     0.004705     0.001200     NO 
 Predicted change in Energy=-1.218865D-05
 GradGradGradGradGradGradGradGradGradGradGradGradGradGradGradGradGradGrad

                          Input orientation:                          
 ---------------------------------------------------------------------
 Center     Atomic      Atomic             Coordinates (Angstroms)
 Number     Number       Type             X           Y           Z
 ---------------------------------------------------------------------
      1          6           0       -1.949698   -0.898997    0.001768
      2          6           0       -0.618048   -0.862445   -0.001568
      3          1           0       -2.550861    0.009591    0.005548
      4          1           0       -2.490371   -1.841040    0.000801
      5          1           0       -0.038446   -1.784996   -0.005193
      6          6           0        0.207973    0.395590   -0.001427
      7          1           0       -0.028540    1.000699   -0.893757
      8          1           0       -0.037136    1.006266    0.884729
      9          8           0        1.590633    0.021678    0.006306
     10          1           0        2.116993    0.831099    0.005930
 ---------------------------------------------------------------------
                    Distance matrix (angstroms):
                    1          2          3          4          5
     1  C    0.000000
     2  C    1.332155   0.000000
     3  H    1.089469   2.120439   0.000000
     4  H    1.086174   2.112640   1.851625   0.000000
     5  H    2.106638   1.089519   3.087537   2.452572   0.000000
     6  C    2.516249   1.504980   2.785715   3.504794   2.194468
     7  H    2.846340   2.148214   2.855371   3.864753   2.923993
     8  H    2.840341   2.148270   2.843437   3.860938   2.929694
     9  O    3.658087   2.379077   4.141511   4.486016   2.432715
    10  H    4.419414   3.216924   4.739592   5.326176   3.389689
                    6          7          8          9         10
     6  C    0.000000
     7  H    1.103787   0.000000
     8  H    1.103756   1.778516   0.000000
     9  O    1.432347   2.095308   2.095393   0.000000
    10  H    1.958081   2.332705   2.333077   0.965514   0.000000
 Stoichiometry    C3H6O
 Framework group  C1[X(C3H6O)]
 Deg. of freedom    24
 Full point group                 C1      NOp   1
 Largest Abelian subgroup         C1      NOp   1
 Largest concise Abelian subgroup C1      NOp   1
                         Standard orientation:                         
 ---------------------------------------------------------------------
 Center     Atomic      Atomic             Coordinates (Angstroms)
 Number     Number       Type             X           Y           Z
 ---------------------------------------------------------------------
      1          6           0        1.914151    0.049391   -0.002221
      2          6           0        0.654013   -0.382659    0.002516
      3          1           0        2.159099    1.110956   -0.006903
      4          1           0        2.750461   -0.643688   -0.001555
      5          1           0        0.434150   -1.449754    0.007024
      6          6           0       -0.560226    0.506490    0.002887
      7          1           0       -0.549775    1.156680    0.894790
      8          1           0       -0.545260    1.163762   -0.883706
      9          8           0       -1.724427   -0.327906   -0.003271
     10          1           0       -2.500889    0.245960   -0.002571
 ---------------------------------------------------------------------
 Rotational constants (GHZ):          34.4745575           4.1620921           3.8028493
 Standard basis: def2TZVP (5D, 7F)
 There are   180 symmetry adapted cartesian basis functions of A   symmetry.
 There are   160 symmetry adapted basis functions of A   symmetry.
   160 basis functions,   252 primitive gaussians,   180 cartesian basis functions
    16 alpha electrons       16 beta electrons
       nuclear repulsion energy       115.8341271965 Hartrees.
 NAtoms=   10 NActive=   10 NUniq=   10 SFac= 1.00D+00 NAtFMM=   60 NAOKFM=F Big=F
 Integral buffers will be    131072 words long.
 Raffenetti 2 integral format.
 Two-electron integral symmetry is turned on.
 Nuclear repulsion after empirical dispersion term =      115.8168478443 Hartrees.
 Standard density basis: Auto (5D, 7F)
   734 Density fitting functions
 There are   734 symmetry adapted density basis functions of A   symmetry.
 One-electron integrals computed using PRISM.
   1 Symmetry operations used in ECPInt.
 ECPInt:  NShTT=    2346 NPrTT=    6892 LenC2=    2330 LenP2D=    5877.
 LDataN:  DoStor=T MaxTD1= 6 Len=  172
 NBasis=   160 RedAO= T EigKep=  1.66D-04  NBF=   160
 NBsUse=   160 1.00D-06 EigRej= -1.00D+00 NBFU=   160
 NBasis=      160 NBas6D=      180 NTT=       12880   NTT6D=    16290
 NDBShl=      110 NDBF=        734 NDBF6D=      928  NNucDB=        0
 IDenFi=        2 ISolve=        0 FullAP=F BlkAPC=T NucTyp=        0
 TolInv= 1.00D-06 TolIt=  1.00D-10 IR12=0.
 FoFCou: FMM=F IPFlag=           0 FMFlag=           0 FMFlg1=           0
         NFxFlg=           0 DoJE=F BraDBF=T KetDBF=T FulRan=T
         wScrn=  0.000000 ICntrl=       600 IOpCl=  3 I1Cent=           6 NGrid=           0
         NMat0=    1 NMatS0=    928 NMatT0=    0 NMatD0=    1 NMtDS0=    0 NMtDT0=    0
 Petite list used in FoFCou.
 DBF EigKep=  1.31D-06 EigRej=  7.04D-07
 NDBF=    734  NBFD=   734
 NRank=   725 NBFDU=   725
 S*AI*S=  7.51092706672    
 Initial guess from the checkpoint file:  "/home/monty/scratch/Gau-143164.chk"
 B after Tr=     0.000000   -0.000000   -0.000000
         Rot=    1.000000   -0.000265    0.000029    0.000029 Ang=  -0.03 deg.
 Recovered     1 saved fitting vectors from chk file.
 Requested convergence on RMS density matrix=1.00D-08 within 128 cycles.
 Requested convergence on MAX density matrix=1.00D-06.
 Requested convergence on             energy=1.00D-06.
 No special actions if energy rises.
 FoFCou: FMM=F IPFlag=           0 FMFlag=      100000 FMFlg1=           0
         NFxFlg=           0 DoJE=T BraDBF=T KetDBF=F FulRan=T
         wScrn=  0.000000 ICntrl=       500 IOpCl=  0 I1Cent=           5 NGrid=           0
         NMat0=    1 NMatS0=      1 NMatT0=    0 NMatD0=    1 NMtDS0=    0 NMtDT0=    0
 Symmetry not used in FoFCou.
 SCF Done:  E(RB97D3) =  -193.075488450     A.U. after    8 cycles
            NFock=  8  Conv=0.81D-08     -V/T= 2.0046
   1 Symmetry operations used in ECPInt.
 ECPInt:  NShTT=    2346 NPrTT=    6892 LenC2=    2330 LenP2D=    5877.
 LDataN:  DoStor=T MaxTD1= 7 Len=  274
 Calling FoFJK, ICntrl=      2527 FMM=F ISym2X=0 I1Cent= 4 IOpClX= 0 NMat=1 NMatS=1 NMatT=0.
 ***** Axes restored to original set *****
 -------------------------------------------------------------------
 Center     Atomic                   Forces (Hartrees/Bohr)
 Number     Number              X              Y              Z
 -------------------------------------------------------------------
      1        6          -0.000000823    0.000076048    0.000019979
      2        6          -0.000215145    0.000042104    0.000011958
      3        1          -0.000035619   -0.000021595    0.000012517
      4        1           0.000026094   -0.000093856   -0.000013647
      5        1           0.000005788   -0.000067218   -0.000025668
      6        6           0.000066536    0.000293761    0.000025905
      7        1           0.000073265   -0.000173798    0.000214680
      8        1           0.000047055   -0.000163661   -0.000253202
      9        8           0.000021908    0.000252184    0.000009879
     10        1           0.000010941   -0.000143968   -0.000002402
 -------------------------------------------------------------------
 Cartesian Forces:  Max     0.000293761 RMS     0.000118653

 GradGradGradGradGradGradGradGradGradGradGradGradGradGradGradGradGradGrad
 Berny optimization.
 Using GEDIIS/GDIIS optimizer.
 FormGI is forming the generalized inverse of G from B-inverse, IUseBI=4.
 Internal  Forces:  Max     0.000304308 RMS     0.000101009
 Search for a local minimum.
 Step number   4 out of a maximum of   45
 All quantities printed in internal units (Hartrees-Bohrs-Radians)
 Mixed Optimization -- En-DIIS/RFO-DIIS
 Swapping is turned off.
 Update second derivatives using D2CorX and points    1    2    3    4
 DE= -1.32D-05 DEPred=-1.22D-05 R= 1.08D+00
 TightC=F SS=  1.41D+00  RLast= 1.80D-02 DXNew= 6.2438D-01 5.4082D-02
 Trust test= 1.08D+00 RLast= 1.80D-02 DXMaxT set to 3.71D-01
 ITU=  1  1  1  0
     Eigenvalues ---    0.00227   0.01295   0.01444   0.03065   0.03069
     Eigenvalues ---    0.06288   0.06612   0.11116   0.13675   0.13818
     Eigenvalues ---    0.16000   0.16064   0.16448   0.19512   0.23647
     Eigenvalues ---    0.30628   0.33822   0.33846   0.34262   0.35995
     Eigenvalues ---    0.37231   0.41169   0.55701   0.60462
 En-DIIS/RFO-DIIS/Sim-DIIS IScMMF=       -3 using points:     4    3
 RFO step:  Lambda=-2.41340666D-06.
 DidBck=F Rises=F RFO-DIIS coefs:    1.82080   -0.82080
 Iteration  1 RMS(Cart)=  0.00473949 RMS(Int)=  0.00000925
 Iteration  2 RMS(Cart)=  0.00001114 RMS(Int)=  0.00000030
 Iteration  3 RMS(Cart)=  0.00000000 RMS(Int)=  0.00000030
 Variable       Old X    -DE/DX   Delta X   Delta X   Delta X     New X
                                 (Linear)    (Quad)   (Total)
    R1        2.51741   0.00001   0.00039  -0.00032   0.00007   2.51748
    R2        2.05880   0.00000   0.00055  -0.00052   0.00003   2.05883
    R3        2.05257   0.00007   0.00043  -0.00021   0.00022   2.05279
    R4        2.05889   0.00006   0.00161  -0.00130   0.00031   2.05920
    R5        2.84400   0.00017  -0.00427   0.00441   0.00014   2.84414
    R6        2.08586  -0.00028  -0.00032  -0.00042  -0.00074   2.08511
    R7        2.08580  -0.00030  -0.00035  -0.00046  -0.00080   2.08499
    R8        2.70674   0.00000  -0.00104   0.00096  -0.00008   2.70667
    R9        1.82456  -0.00011  -0.00053   0.00027  -0.00026   1.82430
    A1        2.12788   0.00010   0.00039   0.00033   0.00072   2.12859
    A2        2.11927  -0.00012  -0.00390   0.00268  -0.00121   2.11805
    A3        2.03604   0.00002   0.00351  -0.00301   0.00050   2.03654
    A4        2.10430  -0.00013  -0.00382   0.00274  -0.00108   2.10322
    A5        2.17923   0.00020   0.00386  -0.00252   0.00134   2.18058
    A6        1.99965  -0.00007  -0.00004  -0.00022  -0.00026   1.99939
    A7        1.91833  -0.00004   0.00189  -0.00197  -0.00008   1.91825
    A8        1.91843  -0.00003   0.00194  -0.00191   0.00003   1.91846
    A9        1.88768   0.00011  -0.00047   0.00091   0.00044   1.88812
   A10        1.87356   0.00001  -0.00464   0.00413  -0.00050   1.87305
   A11        1.93298  -0.00003   0.00064  -0.00067  -0.00003   1.93295
   A12        1.93313  -0.00002   0.00071  -0.00058   0.00013   1.93326
   A13        1.88326   0.00016  -0.00086   0.00178   0.00092   1.88418
    D1        3.14145  -0.00001  -0.00003  -0.00011  -0.00015   3.14130
    D2       -0.00067  -0.00001  -0.00026  -0.00038  -0.00064  -0.00131
    D3       -0.00019  -0.00001  -0.00007  -0.00011  -0.00018  -0.00037
    D4        3.14088  -0.00001  -0.00029  -0.00038  -0.00067   3.14021
    D5       -1.03812  -0.00001  -0.00198  -0.00626  -0.00823  -1.04635
    D6        1.02033  -0.00003  -0.00534  -0.00354  -0.00888   1.01145
    D7        3.13282  -0.00001  -0.00361  -0.00482  -0.00843   3.12439
    D8        2.10298  -0.00001  -0.00219  -0.00651  -0.00870   2.09428
    D9       -2.12177  -0.00004  -0.00556  -0.00379  -0.00934  -2.13111
   D10       -0.00927  -0.00002  -0.00382  -0.00508  -0.00890  -0.01816
   D11        3.14111  -0.00001  -0.00007  -0.00015  -0.00022   3.14089
   D12        1.03799  -0.00001  -0.00248   0.00209  -0.00039   1.03760
   D13       -1.03873   0.00001   0.00244  -0.00226   0.00018  -1.03855
         Item               Value     Threshold  Converged?
 Maximum Force            0.000304     0.000450     YES
 RMS     Force            0.000101     0.000300     YES
 Maximum Displacement     0.012666     0.001800     NO 
 RMS     Displacement     0.004739     0.001200     NO 
 Predicted change in Energy=-1.206978D-06
 GradGradGradGradGradGradGradGradGradGradGradGradGradGradGradGradGradGrad

                          Input orientation:                          
 ---------------------------------------------------------------------
 Center     Atomic      Atomic             Coordinates (Angstroms)
 Number     Number       Type             X           Y           Z
 ---------------------------------------------------------------------
      1          6           0       -1.950277   -0.898993    0.003898
      2          6           0       -0.618632   -0.861573   -0.003584
      3          1           0       -2.552660    0.008773    0.012250
      4          1           0       -2.489263   -1.842133    0.001869
      5          1           0       -0.039368   -1.784500   -0.011612
      6          6           0        0.208313    0.395946   -0.003213
      7          1           0       -0.024442    0.998937   -0.897475
      8          1           0       -0.040001    1.008883    0.879956
      9          8           0        1.590794    0.021712    0.010744
     10          1           0        2.118035    0.830395    0.010301
 ---------------------------------------------------------------------
                    Distance matrix (angstroms):
                    1          2          3          4          5
     1  C    0.000000
     2  C    1.332191   0.000000
     3  H    1.089483   2.120899   0.000000
     4  H    1.086289   2.112058   1.852020   0.000000
     5  H    2.106166   1.089682   3.087561   2.450610   0.000000
     6  C    2.517226   1.505055   2.788030   3.505130   2.194484
     7  H    2.850167   2.147929   2.863548   3.867278   2.921044
     8  H    2.838419   2.148037   2.840174   3.859820   2.932215
     9  O    3.658815   2.379488   4.143474   4.485629   2.433173
    10  H    4.420632   3.217498   4.742410   5.326319   3.390066
                    6          7          8          9         10
     6  C    0.000000
     7  H    1.103394   0.000000
     8  H    1.103331   1.777527   0.000000
     9  O    1.432306   2.094951   2.095120   0.000000
    10  H    1.958563   2.332954   2.333512   0.965377   0.000000
 Stoichiometry    C3H6O
 Framework group  C1[X(C3H6O)]
 Deg. of freedom    24
 Full point group                 C1      NOp   1
 Largest Abelian subgroup         C1      NOp   1
 Largest concise Abelian subgroup C1      NOp   1
                         Standard orientation:                         
 ---------------------------------------------------------------------
 Center     Atomic      Atomic             Coordinates (Angstroms)
 Number     Number       Type             X           Y           Z
 ---------------------------------------------------------------------
      1          6           0        1.914674    0.049280   -0.004364
      2          6           0        0.654222   -0.381889    0.004935
      3          1           0        2.161100    1.110489   -0.013553
      4          1           0        2.749755   -0.645459   -0.003054
      5          1           0        0.434761   -1.449206    0.013770
      6          6           0       -0.560657    0.506514    0.005672
      7          1           0       -0.552610    1.153272    0.899605
      8          1           0       -0.543780    1.167158   -0.877846
      9          8           0       -1.724630   -0.328065   -0.006392
     10          1           0       -2.501630    0.244842   -0.005244
 ---------------------------------------------------------------------
 Rotational constants (GHZ):          34.4893046           4.1602169           3.8014474
 Standard basis: def2TZVP (5D, 7F)
 There are   180 symmetry adapted cartesian basis functions of A   symmetry.
 There are   160 symmetry adapted basis functions of A   symmetry.
   160 basis functions,   252 primitive gaussians,   180 cartesian basis functions
    16 alpha electrons       16 beta electrons
       nuclear repulsion energy       115.8273101373 Hartrees.
 NAtoms=   10 NActive=   10 NUniq=   10 SFac= 1.00D+00 NAtFMM=   60 NAOKFM=F Big=F
 Integral buffers will be    131072 words long.
 Raffenetti 2 integral format.
 Two-electron integral symmetry is turned on.
 Nuclear repulsion after empirical dispersion term =      115.8100339556 Hartrees.
 Standard density basis: Auto (5D, 7F)
   734 Density fitting functions
 There are   734 symmetry adapted density basis functions of A   symmetry.
 One-electron integrals computed using PRISM.
   1 Symmetry operations used in ECPInt.
 ECPInt:  NShTT=    2346 NPrTT=    6892 LenC2=    2329 LenP2D=    5876.
 LDataN:  DoStor=T MaxTD1= 6 Len=  172
 NBasis=   160 RedAO= T EigKep=  1.66D-04  NBF=   160
 NBsUse=   160 1.00D-06 EigRej= -1.00D+00 NBFU=   160
 NBasis=      160 NBas6D=      180 NTT=       12880   NTT6D=    16290
 NDBShl=      110 NDBF=        734 NDBF6D=      928  NNucDB=        0
 IDenFi=        2 ISolve=        0 FullAP=F BlkAPC=T NucTyp=        0
 TolInv= 1.00D-06 TolIt=  1.00D-10 IR12=0.
 FoFCou: FMM=F IPFlag=           0 FMFlag=           0 FMFlg1=           0
         NFxFlg=           0 DoJE=F BraDBF=T KetDBF=T FulRan=T
         wScrn=  0.000000 ICntrl=       600 IOpCl=  3 I1Cent=           6 NGrid=           0
         NMat0=    1 NMatS0=    928 NMatT0=    0 NMatD0=    1 NMtDS0=    0 NMtDT0=    0
 Petite list used in FoFCou.
 DBF EigKep=  1.31D-06 EigRej=  7.06D-07
 NDBF=    734  NBFD=   734
 NRank=   725 NBFDU=   725
 S*AI*S=  7.51119217599    
 Initial guess from the checkpoint file:  "/home/monty/scratch/Gau-143164.chk"
 B after Tr=    -0.000000    0.000000    0.000000
         Rot=    1.000000   -0.000528    0.000054   -0.000013 Ang=  -0.06 deg.
 Recovered     1 saved fitting vectors from chk file.
 Requested convergence on RMS density matrix=1.00D-08 within 128 cycles.
 Requested convergence on MAX density matrix=1.00D-06.
 Requested convergence on             energy=1.00D-06.
 No special actions if energy rises.
 FoFCou: FMM=F IPFlag=           0 FMFlag=      100000 FMFlg1=           0
         NFxFlg=           0 DoJE=T BraDBF=T KetDBF=F FulRan=T
         wScrn=  0.000000 ICntrl=       500 IOpCl=  0 I1Cent=           5 NGrid=           0
         NMat0=    1 NMatS0=      1 NMatT0=    0 NMatD0=    1 NMtDS0=    0 NMtDT0=    0
 Symmetry not used in FoFCou.
 SCF Done:  E(RB97D3) =  -193.075490652     A.U. after    8 cycles
            NFock=  8  Conv=0.44D-08     -V/T= 2.0046
   1 Symmetry operations used in ECPInt.
 ECPInt:  NShTT=    2346 NPrTT=    6892 LenC2=    2329 LenP2D=    5876.
 LDataN:  DoStor=T MaxTD1= 7 Len=  274
 Calling FoFJK, ICntrl=      2527 FMM=F ISym2X=0 I1Cent= 4 IOpClX= 0 NMat=1 NMatS=1 NMatT=0.
 ***** Axes restored to original set *****
 -------------------------------------------------------------------
 Center     Atomic                   Forces (Hartrees/Bohr)
 Number     Number              X              Y              Z
 -------------------------------------------------------------------
      1        6           0.000046395    0.000050526    0.000038870
      2        6          -0.000054624   -0.000110490    0.000023680
      3        1          -0.000015177   -0.000038408    0.000024066
      4        1          -0.000006008    0.000010178   -0.000026384
      5        1          -0.000007318    0.000026624   -0.000050045
      6        6           0.000045665    0.000194723    0.000051822
      7        1           0.000044521   -0.000074952   -0.000029410
      8        1          -0.000010854   -0.000052355   -0.000047556
      9        8          -0.000035729   -0.000004476    0.000021739
     10        1          -0.000006871   -0.000001371   -0.000006782
 -------------------------------------------------------------------
 Cartesian Forces:  Max     0.000194723 RMS     0.000053695

 GradGradGradGradGradGradGradGradGradGradGradGradGradGradGradGradGradGrad
 Berny optimization.
 Using GEDIIS/GDIIS optimizer.
 FormGI is forming the generalized inverse of G from B-inverse, IUseBI=4.
 Internal  Forces:  Max     0.000071515 RMS     0.000030186
 Search for a local minimum.
 Step number   5 out of a maximum of   45
 All quantities printed in internal units (Hartrees-Bohrs-Radians)
 Mixed Optimization -- En-DIIS/RFO-DIIS
 Swapping is turned off.
 Update second derivatives using D2CorX and points    1    2    3    4    5
 DE= -2.20D-06 DEPred=-1.21D-06 R= 1.82D+00
 TightC=F SS=  1.41D+00  RLast= 2.17D-02 DXNew= 6.2438D-01 6.4968D-02
 Trust test= 1.82D+00 RLast= 2.17D-02 DXMaxT set to 3.71D-01
 ITU=  1  1  1  1  0
     Eigenvalues ---    0.00013   0.01294   0.01435   0.03012   0.03069
     Eigenvalues ---    0.06268   0.07238   0.11249   0.13821   0.14947
     Eigenvalues ---    0.15973   0.16109   0.17711   0.20680   0.24068
     Eigenvalues ---    0.32411   0.33835   0.33986   0.34478   0.37184
     Eigenvalues ---    0.41288   0.54277   0.60129   0.89006
 En-DIIS/RFO-DIIS/Sim-DIIS IScMMF=       -3 using points:     5    4    3
 RFO step:  Lambda=-4.63303772D-05.
 DIIS inversion failure, remove point   3.
 Use linear search instead of GDIIS.
 RFO step:  Lambda=-9.06655436D-06 EMin= 1.33788635D-04
 Quartic linear search produced a step of  2.00000.
 Iteration  1 RMS(Cart)=  0.05888225 RMS(Int)=  0.00141414
 Iteration  2 RMS(Cart)=  0.00169989 RMS(Int)=  0.00000527
 Iteration  3 RMS(Cart)=  0.00000113 RMS(Int)=  0.00000520
 Iteration  4 RMS(Cart)=  0.00000000 RMS(Int)=  0.00000520
 Variable       Old X    -DE/DX   Delta X   Delta X   Delta X     New X
                                 (Linear)    (Quad)   (Total)
    R1        2.51748  -0.00003   0.00013   0.00052   0.00066   2.51814
    R2        2.05883  -0.00002   0.00006   0.00020   0.00025   2.05908
    R3        2.05279  -0.00001   0.00043   0.00156   0.00200   2.05478
    R4        2.05920  -0.00003   0.00062   0.00244   0.00305   2.06225
    R5        2.84414   0.00007   0.00029   0.00019   0.00048   2.84462
    R6        2.08511  -0.00003  -0.00149  -0.00530  -0.00679   2.07833
    R7        2.08499  -0.00006  -0.00161  -0.00598  -0.00759   2.07740
    R8        2.70667  -0.00004  -0.00015  -0.00116  -0.00131   2.70536
    R9        1.82430  -0.00000  -0.00052  -0.00192  -0.00244   1.82186
    A1        2.12859   0.00004   0.00143   0.00557   0.00700   2.13559
    A2        2.11805  -0.00001  -0.00243  -0.00973  -0.01216   2.10590
    A3        2.03654  -0.00003   0.00100   0.00416   0.00516   2.04170
    A4        2.10322   0.00001  -0.00216  -0.00862  -0.01079   2.09243
    A5        2.18058   0.00000   0.00269   0.01056   0.01324   2.19382
    A6        1.99939  -0.00001  -0.00053  -0.00195  -0.00248   1.99691
    A7        1.91825  -0.00002  -0.00015  -0.00033  -0.00048   1.91777
    A8        1.91846  -0.00001   0.00006   0.00090   0.00095   1.91941
    A9        1.88812  -0.00002   0.00089   0.00261   0.00349   1.89161
   A10        1.87305   0.00004  -0.00101  -0.00383  -0.00484   1.86821
   A11        1.93295  -0.00000  -0.00005  -0.00058  -0.00063   1.93232
   A12        1.93326   0.00001   0.00025   0.00120   0.00145   1.93471
   A13        1.88418  -0.00001   0.00184   0.00584   0.00767   1.89185
    D1        3.14130  -0.00001  -0.00029  -0.00168  -0.00198   3.13932
    D2       -0.00131  -0.00003  -0.00127  -0.00737  -0.00864  -0.00994
    D3       -0.00037  -0.00002  -0.00036  -0.00210  -0.00247  -0.00284
    D4        3.14021  -0.00003  -0.00134  -0.00780  -0.00913   3.13108
    D5       -1.04635  -0.00005  -0.01647  -0.08828  -0.10474  -1.15109
    D6        1.01145  -0.00002  -0.01776  -0.09262  -0.11037   0.90107
    D7        3.12439  -0.00002  -0.01686  -0.08899  -0.10585   3.01855
    D8        2.09428  -0.00006  -0.01740  -0.09368  -0.11109   1.98319
    D9       -2.13111  -0.00003  -0.01869  -0.09802  -0.11672  -2.24783
   D10       -0.01816  -0.00003  -0.01779  -0.09439  -0.11219  -0.13035
   D11        3.14089  -0.00001  -0.00043  -0.00263  -0.00306   3.13783
   D12        1.03760   0.00003  -0.00078  -0.00352  -0.00430   1.03330
   D13       -1.03855  -0.00003   0.00035   0.00086   0.00121  -1.03734
         Item               Value     Threshold  Converged?
 Maximum Force            0.000072     0.000450     YES
 RMS     Force            0.000030     0.000300     YES
 Maximum Displacement     0.160478     0.001800     NO 
 RMS     Displacement     0.058840     0.001200     NO 
 Predicted change in Energy=-1.993617D-05
 GradGradGradGradGradGradGradGradGradGradGradGradGradGradGradGradGradGrad

                          Input orientation:                          
 ---------------------------------------------------------------------
 Center     Atomic      Atomic             Coordinates (Angstroms)
 Number     Number       Type             X           Y           Z
 ---------------------------------------------------------------------
      1          6           0       -1.954843   -0.899087    0.030815
      2          6           0       -0.624429   -0.852463   -0.028222
      3          1           0       -2.567531   -0.000490    0.097172
      4          1           0       -2.477549   -1.852399    0.013671
      5          1           0       -0.050145   -1.778252   -0.091822
      6          6           0        0.211566    0.399357   -0.025454
      7          1           0        0.026386    0.974775   -0.944240
      8          1           0       -0.075639    1.040858    0.819818
      9          8           0        1.589438    0.021833    0.066522
     10          1           0        2.125244    0.823316    0.064875
 ---------------------------------------------------------------------
                    Distance matrix (angstroms):
                    1          2          3          4          5
     1  C    0.000000
     2  C    1.332540   0.000000
     3  H    1.089617   2.125377   0.000000
     4  H    1.087345   2.106106   1.855973   0.000000
     5  H    2.101392   1.091298   3.087619   2.430827   0.000000
[...]
 ***** Axes restored to original set *****
 -------------------------------------------------------------------
 Center     Atomic                   Forces (Hartrees/Bohr)
 Number     Number              X              Y              Z
 -------------------------------------------------------------------
      1        6          -0.000004929   -0.000039078   -0.000003427
      2        6          -0.000059248    0.000019343   -0.000002688
      3        1           0.000002702    0.000016873    0.000006838
      4        1          -0.000001688   -0.000000156   -0.000007788
      5        1           0.000010453   -0.000015967   -0.000010241
      6        6           0.000163490   -0.000081472    0.000143074
      7        1          -0.000003390    0.000012465   -0.000059586
      8        1          -0.000008461    0.000025204   -0.000001311
      9        8          -0.000102313    0.000073690   -0.000068708
     10        1           0.000003385   -0.000010902    0.000003838
 -------------------------------------------------------------------
 Cartesian Forces:  Max     0.000163490 RMS     0.000053340
 FormGI is forming the generalized inverse of G from B-inverse, IUseBI=4.

 GradGradGradGradGradGradGradGradGradGradGradGradGradGradGradGradGradGrad
 Berny optimization.
 Internal  Forces:  Max     0.000128367 RMS     0.000030049
 Search for a local minimum.
 Step number   1 out of a maximum of    2
 All quantities printed in internal units (Hartrees-Bohrs-Radians)
 Second derivative matrix not updated -- analytic derivatives used.
 ITU=  0
     Eigenvalues ---    0.00179   0.00250   0.01742   0.03034   0.03775
     Eigenvalues ---    0.05733   0.07048   0.09816   0.10177   0.10618
     Eigenvalues ---    0.11811   0.13276   0.15316   0.16261   0.21576
     Eigenvalues ---    0.29342   0.29749   0.30549   0.34046   0.34340
     Eigenvalues ---    0.34796   0.35557   0.50349   0.60371
 Angle between quadratic step and forces=  57.39 degrees.
 Linear search not attempted -- first point.
 Iteration  1 RMS(Cart)=  0.00036911 RMS(Int)=  0.00000016
 Iteration  2 RMS(Cart)=  0.00000017 RMS(Int)=  0.00000003
 Variable       Old X    -DE/DX   Delta X   Delta X   Delta X     New X
                                 (Linear)    (Quad)   (Total)
    R1        2.51807   0.00000   0.00000  -0.00000  -0.00000   2.51807
    R2        2.05779   0.00001   0.00000   0.00005   0.00005   2.05784
    R3        2.05415   0.00000   0.00000  -0.00000  -0.00000   2.05414
    R4        2.06055   0.00002   0.00000   0.00008   0.00008   2.06063
    R5        2.82706   0.00005   0.00000   0.00017   0.00017   2.82723
    R6        2.08670   0.00006   0.00000   0.00025   0.00025   2.08694
    R7        2.08248   0.00002   0.00000   0.00012   0.00012   2.08260
    R8        2.71628  -0.00013   0.00000  -0.00064  -0.00064   2.71563
    R9        1.82556  -0.00001   0.00000  -0.00003  -0.00003   1.82553
    A1        2.11961  -0.00001   0.00000  -0.00011  -0.00011   2.11949
    A2        2.12403   0.00000   0.00000   0.00002   0.00002   2.12405
    A3        2.03954   0.00001   0.00000   0.00009   0.00009   2.03963
    A4        2.10147  -0.00001   0.00000  -0.00005  -0.00005   2.10142
    A5        2.16939   0.00003   0.00000   0.00015   0.00015   2.16954
    A6        2.01225  -0.00002   0.00000  -0.00011  -0.00011   2.01214
    A7        1.90485  -0.00004   0.00000  -0.00048  -0.00048   1.90437
    A8        1.92066  -0.00000   0.00000  -0.00002  -0.00003   1.92064
    A9        1.89523   0.00006   0.00000   0.00045   0.00045   1.89567
   A10        1.88153  -0.00000   0.00000  -0.00027  -0.00027   1.88126
   A11        1.92018  -0.00001   0.00000   0.00018   0.00018   1.92036
   A12        1.94120  -0.00002   0.00000   0.00014   0.00014   1.94134
   A13        1.87983   0.00002   0.00000   0.00023   0.00023   1.88006
    D1        3.12609   0.00000   0.00000  -0.00001  -0.00001   3.12608
    D2       -0.02940  -0.00000   0.00000  -0.00028  -0.00028  -0.02967
    D3       -0.02043  -0.00001   0.00000  -0.00017  -0.00017  -0.02060
    D4        3.10727  -0.00001   0.00000  -0.00044  -0.00044   3.10683
    D5       -1.97854   0.00001   0.00000   0.00028   0.00028  -1.97826
    D6        0.08286  -0.00001   0.00000  -0.00035  -0.00035   0.08251
    D7        2.21138   0.00000   0.00000   0.00009   0.00009   2.21147
    D8        1.14980   0.00001   0.00000   0.00002   0.00002   1.14983
    D9       -3.07198  -0.00002   0.00000  -0.00061  -0.00061  -3.07259
   D10       -0.94346  -0.00000   0.00000  -0.00017  -0.00017  -0.94363
   D11        2.92608  -0.00001   0.00000  -0.00101  -0.00101   2.92507
   D12        0.84239  -0.00000   0.00000  -0.00080  -0.00080   0.84159
   D13       -1.24116   0.00001   0.00000  -0.00066  -0.00066  -1.24182
         Item               Value     Threshold  Converged?
 Maximum Force            0.000128     0.000450     YES
 RMS     Force            0.000030     0.000300     YES
 Maximum Displacement     0.001029     0.001800     YES
 RMS     Displacement     0.000369     0.001200     YES
 Predicted change in Energy=-9.828482D-08
 Optimization completed.
    -- Stationary point found.
                           ----------------------------
                           !   Optimized Parameters   !
                           ! (Angstroms and Degrees)  !
 --------------------------                            --------------------------
 ! Name  Definition              Value          Derivative Info.                !
 --------------------------------------------------------------------------------
 ! R1    R(1,2)                  1.3325         -DE/DX =    0.0                 !
 ! R2    R(1,3)                  1.0889         -DE/DX =    0.0                 !
 ! R3    R(1,4)                  1.087          -DE/DX =    0.0                 !
 ! R4    R(2,5)                  1.0904         -DE/DX =    0.0                 !
 ! R5    R(2,6)                  1.496          -DE/DX =    0.0                 !
 ! R6    R(6,7)                  1.1042         -DE/DX =    0.0001              !
 ! R7    R(6,8)                  1.102          -DE/DX =    0.0                 !
 ! R8    R(6,9)                  1.4374         -DE/DX =   -0.0001              !
 ! R9    R(9,10)                 0.966          -DE/DX =    0.0                 !
 ! A1    A(2,1,3)              121.4445         -DE/DX =    0.0                 !
 ! A2    A(2,1,4)              121.6981         -DE/DX =    0.0                 !
 ! A3    A(3,1,4)              116.8568         -DE/DX =    0.0                 !
 ! A4    A(1,2,5)              120.4054         -DE/DX =    0.0                 !
 ! A5    A(1,2,6)              124.2969         -DE/DX =    0.0                 !
 ! A6    A(5,2,6)              115.2933         -DE/DX =    0.0                 !
 ! A7    A(2,6,7)              109.14           -DE/DX =    0.0                 !
 ! A8    A(2,6,8)              110.0459         -DE/DX =    0.0                 !
 ! A9    A(2,6,9)              108.5884         -DE/DX =    0.0001              !
 ! A10   A(7,6,8)              107.8037         -DE/DX =    0.0                 !
 ! A11   A(7,6,9)              110.0185         -DE/DX =    0.0                 !
 ! A12   A(8,6,9)              111.2228         -DE/DX =    0.0                 !
 ! A13   A(6,9,10)             107.7062         -DE/DX =    0.0                 !
 ! D1    D(3,1,2,5)            179.1115         -DE/DX =    0.0                 !
 ! D2    D(3,1,2,6)             -1.6842         -DE/DX =    0.0                 !
 ! D3    D(4,1,2,5)             -1.1706         -DE/DX =    0.0                 !
 ! D4    D(4,1,2,6)            178.0336         -DE/DX =    0.0                 !
 ! D5    D(1,2,6,7)           -113.362          -DE/DX =    0.0                 !
 ! D6    D(1,2,6,8)              4.7473         -DE/DX =    0.0                 !
 ! D7    D(1,2,6,9)            126.7029         -DE/DX =    0.0                 !
 ! D8    D(5,2,6,7)             65.8789         -DE/DX =    0.0                 !
 ! D9    D(5,2,6,8)           -176.0118         -DE/DX =    0.0                 !
 ! D10   D(5,2,6,9)            -54.0562         -DE/DX =    0.0                 !
 ! D11   D(2,6,9,10)           167.652          -DE/DX =    0.0                 !
 ! D12   D(7,6,9,10)            48.2656         -DE/DX =    0.0                 !
 ! D13   D(8,6,9,10)           -71.1129         -DE/DX =    0.0                 !
 --------------------------------------------------------------------------------
 GradGradGradGradGradGradGradGradGradGradGradGradGradGradGradGradGradGrad


 ----------------------------------------------------------------------

 Electric dipole moment (input orientation):
 (Debye = 10**-18 statcoulomb cm , SI units = C m)
                  (au)            (Debye)         (10**-30 SI)
   Tot        0.627907D+00      0.159598D+01      0.532362D+01
   x         -0.314357D-01     -0.799017D-01     -0.266523D+00
   y          0.528800D+00      0.134408D+01      0.448336D+01
   z         -0.337119D+00     -0.856872D+00     -0.285822D+01

 Dipole polarizability, Alpha (input orientation).
 (esu units = cm**3 , SI units = C**2 m**2 J**-1)
 Alpha(0;0):
               (au)            (10**-24 esu)      (10**-40 SI)
   iso        0.431597D+02      0.639561D+01      0.711607D+01
   aniso      0.233910D+02      0.346618D+01      0.385665D+01
   xx         0.555300D+02      0.822870D+01      0.915566D+01
   yx         0.622753D+01      0.922825D+00      0.102678D+01
   yy         0.403857D+02      0.598455D+01      0.665871D+01
   zx        -0.409736D+01     -0.607167D+00     -0.675564D+00
   zy         0.635895D+00      0.942299D-01      0.104845D+00
   zz         0.335634D+02      0.497358D+01      0.553385D+01

 ----------------------------------------------------------------------

 Dipole orientation:
     6         -3.64236132          0.69318334         -1.49107803
     6         -1.22461195          1.24202387         -1.05070454
     1         -4.57209567         -0.88659792         -0.55599614
     1         -4.78159026          1.80288270         -2.79117087
     1         -0.31796623          2.81484935         -2.02542159
     6          0.42043950         -0.15888776          0.77234566
     1          0.91910022          1.10596080          2.35531527
     1         -0.61178713         -1.78734158          1.55935195
     8          2.66966203         -0.95467441         -0.52606853
     1          3.86634344         -1.51947350          0.73156469

 Electric dipole moment (dipole orientation):
 (Debye = 10**-18 statcoulomb cm , SI units = C m)
                  (au)            (Debye)         (10**-30 SI)
   Tot        0.627907D+00      0.159598D+01      0.532362D+01
   x          0.000000D+00      0.000000D+00      0.000000D+00
   y          0.000000D+00      0.000000D+00      0.000000D+00
   z          0.627907D+00      0.159598D+01      0.532362D+01

 Dipole polarizability, Alpha (dipole orientation).
 (esu units = cm**3 , SI units = C**2 m**2 J**-1)
 Alpha(0;0):
               (au)            (10**-24 esu)      (10**-40 SI)
   iso        0.431597D+02      0.639561D+01      0.711607D+01
   aniso      0.233910D+02      0.346618D+01      0.385665D+01
   xx         0.562125D+02      0.832983D+01      0.926819D+01
   yx        -0.613476D+00     -0.909078D-01     -0.101149D+00
   yy         0.361299D+02      0.535390D+01      0.595702D+01
   zx         0.643698D+01      0.953861D+00      0.106131D+01
   zy        -0.354016D+01     -0.524597D+00     -0.583693D+00
   zz         0.371367D+02      0.550309D+01      0.612301D+01

 ----------------------------------------------------------------------
 Unable to Open any file for archive entry.
 1\1\GINC-RTX\Freq\RB97D3\def2TZVP/Auto\C3H6O1\MONTY\21-Mar-2026\0\\#N 
 Geom=AllCheck Guess=TCheck SCRF=Check GenChk RB97D3/def2TZVP/Auto Freq
 \\2-propenol\\0,1\C,-1.8948713072,-0.9149208159,0.2112101171\C,-0.6371
 743469,-0.8399737276,-0.2225511431\H,-2.3879022539,-0.0614973473,0.674
 2086687\H,-2.4784086058,-1.8270866363,0.1162220034\H,-0.1551904286,-1.
 7094137024,-0.6705773255\C,0.2039690886,0.3955811879,-0.1597623666\H,0
 .4071191639,0.7478262172,-1.1863980747\H,-0.338580448,1.1953968001,0.3
 697126484\O,1.438216618,0.0763698818,0.5041892807\H,2.04532134,0.81516
 45624,0.3668818616\\Version=ES64L-G16RevC.01\State=1-A\HF=-193.0778727
 \RMSD=2.024e-09\RMSF=5.334e-05\ZeroPoint=0.0827959\Thermal=0.0879512\E
 Tot=-192.9899215\HTot=-192.9889773\GTot=-193.0224454\Dipole=-0.0314357
 ,0.5288003,-0.3371194\DipoleDeriv=-0.1012712,-0.016059,-0.0714189,-0.0
 015573,0.0747488,0.1239357,-0.0908518,0.1169016,-0.2116485,0.0538886,0
 .0325437,-0.1161492,-0.0034414,0.0720242,0.0648825,-0.1184875,0.066975
 6,-0.1547547,0.0335661,0.0107661,0.0413003,0.0681824,-0.0556454,-0.089
 3333,0.0668251,-0.0645849,0.0923701,0.0039772,-0.0667116,0.0289969,-0.
 1010308,-0.0503563,-0.0298332,0.0132126,-0.0464036,0.1266925,0.0215032
 ,0.0416216,0.0590385,0.0167919,-0.0707041,-0.0709434,0.0818601,-0.0543
 541,0.0848138,0.851292,-0.0428839,0.1725824,-0.0212347,0.2945227,-0.03
 76951,0.2795327,0.0162447,0.4949669,-0.091403,-0.0677058,0.037534,-0.0
 479952,-0.0076318,0.0704176,-0.0128559,0.0879741,-0.1784918,-0.0941425
 ,0.1108923,0.0252041,0.0833596,-0.1054598,-0.0435776,0.0321566,-0.1035
 148,-0.0220619,-0.9035836,0.0593264,-0.1689096,0.0979285,-0.289903,-0.
 0506515,-0.2458712,-0.0792511,-0.5292128,0.2261731,-0.0617897,-0.00817
 85,-0.0910029,0.1384048,0.0627982,-0.0055206,0.0600125,0.2973264\Polar
 =55.5299886,6.2275315,40.3857166,-4.0973646,0.6358946,33.5633837\Quadr
 upole=0.6599709,1.3402346,-2.0002055,2.4784242,-1.4309585,0.59483\PG=C
 01 [X(C3H6O1)]\NImag=0\\0.73729960,0.06709604,0.57003108,-0.20859489,0
 .13237863,0.22052330,-0.47845324,-0.02572211,0.14722674,0.74480291,-0.
 02431044,-0.10307023,-0.01097443,0.01183779,0.52355121,0.14838291,-0.0
 1025620,-0.10212320,-0.21022873,0.11221286,0.25508911,-0.10318689,0.08
 806890,0.05496181,-0.01078185,0.02483187,0.01420302,0.10786424,0.09169
 960,-0.21904362,-0.09588962,-0.00074386,0.00254561,-0.00065554,-0.1003
 6175,0.22738435,0.05603857,-0.09482975,-0.08545707,0.00495210,-0.00966
 184,0.00089240,-0.06469232,0.10483149,0.08091995,-0.12609126,-0.120661
 84,-0.00643346,-0.01239171,-0.02702439,-0.00349928,0.00825678,0.011568
 08,0.00154957,0.13267555,-0.12450400,-0.24831865,-0.02679370,0.0012773
 9,0.00129806,-0.00109513,-0.01218290,-0.01384191,-0.00092574,0.1357664
 2,0.25730363,-0.00893394,-0.02811278,-0.03899578,0.00805219,0.01000015
 ,0.00301524,-0.00636548,-0.00911244,0.00110200,0.00549334,0.02953520,0
 .03038759,-0.01043477,0.02470103,0.01401203,-0.10078655,0.08860361,0.0
 5167815,-0.00308940,-0.00157524,0.00453668,0.00017675,0.00054884,-0.00
 255808,0.10610019,-0.00303896,0.00431041,0.00066985,0.09040313,-0.2208
 3500,-0.09047226,-0.00197218,0.00200426,-0.00195058,0.00093464,0.00050
 933,0.00203520,-0.09648245,0.23404468,0.00588169,-0.00966454,0.0003361
 2,0.05225539,-0.08940865,-0.08574632,0.00474023,-0.00243009,0.00893032
 ,-0.00249105,0.00239701,-0.00576915,-0.06136851,0.09986810,0.07847333,
 -0.02032022,-0.02530782,0.00292956,-0.10250654,-0.05680188,0.00671746,
 0.00034974,-0.00106651,-0.00238827,-0.00158126,-0.00011009,0.00317240,
 0.00726753,0.01345494,0.00070266,0.44058170,-0.00773145,0.00026989,0.0
 0193003,-0.04859167,-0.18284293,-0.00543594,0.00364106,0.00034507,0.00
 224844,0.00052053,0.00272694,-0.00618962,-0.01458476,-0.02033780,-0.00
 019930,-0.00509266,0.52418250,0.00856736,0.00988685,0.00508898,0.00301
 513,-0.01154183,-0.07352839,-0.00200147,0.00314785,-0.00657326,0.00584
 605,-0.00354500,0.01023435,-0.00707098,-0.01139705,0.00200496,-0.06503
 230,0.02077962,0.50391632,-0.00023767,-0.00244478,-0.00071219,-0.00608
 547,-0.00652569,0.01724652,0.00046569,-0.00047770,0.00099863,-0.000934
 31,0.00038958,-0.00165976,0.00045065,0.00006155,-0.00069577,-0.0550150
 5,-0.01713543,0.05499347,0.06761849,-0.00027713,-0.00275463,-0.0009350
 4,-0.01037753,-0.00837380,0.02536833,0.00010507,-0.00020865,0.00072185
 ,-0.00129724,0.00055492,-0.00136941,0.00056463,0.00066122,-0.00062252,
 -0.01378578,-0.07143089,0.06238087,0.01560712,0.07373562,-0.00078572,0
 .00063744,0.00061914,0.00298089,0.00017935,0.00243572,-0.00029039,0.00
 010674,-0.00009785,0.00004708,0.00021170,-0.00018776,0.00017503,0.0005
 4760,0.00028298,0.04969285,0.06004877,-0.23913077,-0.04538575,-0.07409
 552,0.26653511,0.00088969,-0.00104485,-0.00089208,0.00851348,-0.013260
 27,-0.00791796,0.00017698,0.00042784,0.00053452,0.00008221,0.00010784,
 -0.00028743,-0.00165011,-0.00329539,0.00026760,-0.09378272,0.07493974,
 0.05730825,-0.00076330,0.00554651,0.00649871,0.11478905,0.00204223,0.0
 0096983,0.00014455,0.01135045,-0.02260039,-0.01587905,-0.00135299,0.00
 073944,0.00015748,0.00009908,0.00043833,0.00072604,-0.00299345,-0.0032
 3164,-0.00022947,0.07278343,-0.16750878,-0.08560209,-0.00449116,0.0073
 6902,0.00452785,-0.08737470,0.18475829,-0.00043465,0.00111841,0.000188
 59,0.00254073,-0.00006174,-0.00045956,-0.00045797,0.00002886,0.0000456
 0,-0.00019275,0.00007072,0.00019195,-0.00026645,0.00011728,0.00147723,
 0.05707866,-0.08889636,-0.11331033,0.01288250,-0.02065602,-0.01483293,
 -0.05786779,0.09306438,0.11581726,0.00027700,-0.00368470,-0.00160541,-
 0.03578073,-0.00065565,-0.01392876,0.00012719,0.00043489,-0.00117724,-
 0.00025727,-0.00105789,0.00224372,0.00168544,-0.00021778,0.00068051,-0
 .15102885,0.04291359,-0.06104609,-0.00812967,0.00401752,-0.01263650,-0
 .02827650,0.01026261,-0.01406878,0.42554048,-0.00148843,-0.00290788,-0
 .00002299,-0.02822561,0.01079495,-0.01356855,-0.00079458,0.00008542,-0
 .00072076,-0.00003112,-0.00075186,0.00248012,0.00095546,0.00255100,-0.
 00003492,0.00181453,-0.08989299,0.01314094,0.01382475,0.00000305,0.007
 03460,0.02246235,-0.00093543,0.01487038,0.19054417,0.38523994,0.000666
 58,-0.00028028,-0.00048785,-0.00723401,-0.00254745,0.00242868,-0.00009
 617,-0.00010116,0.00032026,-0.00027107,0.00024852,-0.00043565,0.000621
 52,0.00052571,0.00002219,-0.03563123,0.03191441,-0.08738809,-0.0375753
 5,0.01028970,-0.01642185,0.00206375,0.00236463,0.01054716,0.05605299,-
 0.10222067,0.11555265,0.00025776,-0.00099987,-0.00089211,-0.00653029,0
 .00330506,-0.00265334,-0.00018248,0.00009465,-0.00035224,0.00006452,-0
 .00023518,0.00084304,0.00028028,0.00015249,0.00002725,-0.02396433,-0.0
 2887895,0.00542058,0.00263065,-0.00010317,-0.00029620,0.00002123,-0.00
 032549,0.00078650,-0.20415709,-0.19906153,0.02140296,0.23157977,0.0005
 1254,0.00051379,-0.00050728,-0.00120798,-0.00046749,-0.00021853,0.0000
 1750,-0.00000998,0.00012940,0.00012584,0.00008123,0.00000754,0.0002623
 3,0.00032354,0.00032438,0.01411183,0.00448898,0.00274983,0.00119177,0.
 00044413,0.00080147,0.00149093,0.00000133,0.00034410,-0.24255674,-0.30
 418621,0.05980660,0.22605200,0.29881067,-0.00078791,-0.00087779,0.0003
 0777,-0.00356043,0.00180357,-0.00200369,-0.00000127,0.00007391,-0.0000
 8234,-0.00004845,-0.00010359,0.00045720,0.00024060,0.00005616,-0.00001
 165,-0.01724180,-0.01620005,-0.00131379,-0.00009229,-0.00108224,0.0007
 9820,0.00029242,0.00072569,0.00033503,0.04548557,0.07904184,-0.0241374
 9,-0.02428644,-0.06343751,0.02565077\\0.00000493,0.00003908,0.00000343
 ,0.00005925,-0.00001934,0.00000269,-0.00000270,-0.00001687,-0.00000684
 ,0.00000169,0.00000016,0.00000779,-0.00001045,0.00001597,0.00001024,-0
 .00016349,0.00008147,-0.00014307,0.00000339,-0.00001246,0.00005959,0.0
 0000846,-0.00002520,0.00000131,0.00010231,-0.00007369,0.00006871,-0.00
 000338,0.00001090,-0.00000384\\\@
 The archive entry for this job was punched.


 MOST BUREAUCRACIES FUNCTION LIKE A SEPTIC TANK.
 THE LARGE CHUNKS RISE TO THE TOP.
 Job cpu time:       0 days  0 hours  1 minutes 30.2 seconds.
 Elapsed time:       0 days  0 hours  0 minutes 22.5 seconds.
 File lengths (MBytes):  RWF=     32 Int=      0 D2E=      0 Chk=      7 Scr=      1
 Normal termination of Gaussian 16 at Sat Mar 21 20:51:51 2026.
