 Entering Gaussian System, Link 0=g16
 Input=propionaldehyde_stransts.com
 Output=propionaldehyde_stransts.log
 Initial command:
 /usr/local//g16/l1.exe "/home/monty/scratch/Gau-138299.inp" -scrdir="/home/monty/scratch/"
 Entering Link 1 = /usr/local//g16/l1.exe PID=    138301.
  
 Copyright (c) 1988-2019, Gaussian, Inc.  All Rights Reserved.
  
 This is part of the Gaussian(R) 16 program.  It is based on
 the Gaussian(R) 09 system (copyright 2009, Gaussian, Inc.),
 the Gaussian(R) 03 system (copyright 2003, Gaussian, Inc.),
 the Gaussian(R) 98 system (copyright 1998, Gaussian, Inc.),
 the Gaussian(R) 94 system (copyright 1995, Gaussian, Inc.),
 the Gaussian 92(TM) system (copyright 1992, Gaussian, Inc.),
 the Gaussian 90(TM) system (copyright 1990, Gaussian, Inc.),
 the Gaussian 88(TM) system (copyright 1988, Gaussian, Inc.),
 the Gaussian 86(TM) system (copyright 1986, Carnegie Mellon
 University), and the Gaussian 82(TM) system (copyright 1983,
 Carnegie Mellon University). Gaussian is a federally registered
 trademark of Gaussian, Inc.
  
 This software contains proprietary and confidential information,
 including trade secrets, belonging to Gaussian, Inc.
  
 This software is provided under written license and may be
 used, copied, transmitted, or stored only in accord with that
 written license.
  
 The following legend is applicable only to US Government
 contracts under FAR:
  
                    RESTRICTED RIGHTS LEGEND
  
 Use, reproduction and disclosure by the US Government is
 subject to restrictions as set forth in subparagraphs (a)
 and (c) of the Commercial Computer Software - Restricted
 Rights clause in FAR 52.227-19.
  
 Gaussian, Inc.
 340 Quinnipiac St., Bldg. 40, Wallingford CT 06492
  
  
 ---------------------------------------------------------------
 Warning -- This program may not be used in any manner that
 competes with the business of Gaussian, Inc. or will provide
 assistance to any competitor of Gaussian, Inc.  The licensee
 of this program is prohibited from giving any competitor of
 Gaussian, Inc. access to this program.  By using this program,
 the user acknowledges that Gaussian, Inc. is engaged in the
 business of creating and licensing software in the field of
 computational chemistry and represents and warrants to the
 licensee that it is not a competitor of Gaussian, Inc. and that
 it will not use this program in any manner prohibited above.
 ---------------------------------------------------------------
  

 Cite this work as:
 Gaussian 16, Revision C.01,
 M. J. Frisch, G. W. Trucks, H. B. Schlegel, G. E. Scuseria, 
 M. A. Robb, J. R. Cheeseman, G. Scalmani, V. Barone, 
 G. A. Petersson, H. Nakatsuji, X. Li, M. Caricato, A. V. Marenich, 
 J. Bloino, B. G. Janesko, R. Gomperts, B. Mennucci, H. P. Hratchian, 
 J. V. Ortiz, A. F. Izmaylov, J. L. Sonnenberg, D. Williams-Young, 
 F. Ding, F. Lipparini, F. Egidi, J. Goings, B. Peng, A. Petrone, 
 T. Henderson, D. Ranasinghe, V. G. Zakrzewski, J. Gao, N. Rega, 
 G. Zheng, W. Liang, M. Hada, M. Ehara, K. Toyota, R. Fukuda, 
 J. Hasegawa, M. Ishida, T. Nakajima, Y. Honda, O. Kitao, H. Nakai, 
 T. Vreven, K. Throssell, J. A. Montgomery, Jr., J. E. Peralta, 
 F. Ogliaro, M. J. Bearpark, J. J. Heyd, E. N. Brothers, K. N. Kudin, 
 V. N. Staroverov, T. A. Keith, R. Kobayashi, J. Normand, 
 K. Raghavachari, A. P. Rendell, J. C. Burant, S. S. Iyengar, 
 J. Tomasi, M. Cossi, J. M. Millam, M. Klene, C. Adamo, R. Cammi, 
 J. W. Ochterski, R. L. Martin, K. Morokuma, O. Farkas, 
 J. B. Foresman, and D. J. Fox, Gaussian, Inc., Wallingford CT, 2019.
 
 ******************************************
 Gaussian 16:  ES64L-G16RevC.01  3-Jul-2019
                21-Mar-2026 
 ******************************************
 %mem=512MW
 %nprocshared=4
 Will use up to    4 processors via shared memory.
 ----------------------------------------------------------------------
 # opt=(calcfc,ts,noeigen) freq b97d3/def2tzvp/auto EmpiricalDispersion
 =GD3BJ
 ----------------------------------------------------------------------
 1/5=1,10=4,11=1,18=20,26=3,38=1/1,3;
 2/9=110,12=2,17=6,18=5,40=1/2;
 3/5=44,7=101,11=2,25=1,30=1,71=2,74=-59,82=28,124=41,140=1/1,2,3;
 4//1;
 5/5=2,38=5/2;
 8/6=4,10=90,11=11/1;
 11/6=1,8=1,9=11,15=111,16=1/1,2,10;
 10/6=1,13=1/2;
 6/7=2,8=2,9=2,10=2,28=1/1;
 7/10=1,25=1/1,2,3,16;
 1/5=1,10=4,11=1,18=20,26=3/3(2);
 2/9=110/2;
 99//99;
 2/9=110/2;
 3/5=44,7=101,11=2,25=1,30=1,71=1,74=-59,82=28,124=41/1,2,3;
 4/5=5,16=3,69=1/1;
 5/5=2,38=5/2;
 7//1,2,3,16;
 1/5=1,11=1,18=20,26=3/3(-5);
 2/9=110/2;
 6/7=2,8=2,9=2,10=2,19=2,28=1/1;
 99/9=1/99;
 ---------------------
 propionaldehyde s-cis
 ---------------------
 Symbolic Z-matrix:
 Charge =  0 Multiplicity = 1
 C                     1.77823  -0.20972  -0.00002 
 H                     1.86892  -0.84991   0.88486 
 H                     1.86885  -0.84992  -0.8849 
 H                     2.62636   0.48133  -0.00007 
 C                     0.45155   0.54882   0.00003 
 H                     0.36546   1.2082   -0.87443 
 H                     0.36549   1.2082    0.87449 
 C                    -0.7704   -0.35363   0.00002 
 O                    -1.91259   0.04277  -0.00003 
 H                    -0.5506   -1.45288   0.00011 
 

 GradGradGradGradGradGradGradGradGradGradGradGradGradGradGradGradGradGrad
 Berny optimization.
 Initialization pass.
                           ----------------------------
                           !    Initial Parameters    !
                           ! (Angstroms and Degrees)  !
 --------------------------                            --------------------------
 ! Name  Definition              Value          Derivative Info.                !
 --------------------------------------------------------------------------------
 ! R1    R(1,2)                  1.0959         calculate D2E/DX2 analytically  !
 ! R2    R(1,3)                  1.0959         calculate D2E/DX2 analytically  !
 ! R3    R(1,4)                  1.094          calculate D2E/DX2 analytically  !
 ! R4    R(1,5)                  1.5282         calculate D2E/DX2 analytically  !
 ! R5    R(5,6)                  1.0986         calculate D2E/DX2 analytically  !
 ! R6    R(5,7)                  1.0986         calculate D2E/DX2 analytically  !
 ! R7    R(5,8)                  1.5191         calculate D2E/DX2 analytically  !
 ! R8    R(8,9)                  1.209          calculate D2E/DX2 analytically  !
 ! R9    R(8,10)                 1.121          calculate D2E/DX2 analytically  !
 ! A1    A(2,1,3)              107.6889         calculate D2E/DX2 analytically  !
 ! A2    A(2,1,4)              107.75           calculate D2E/DX2 analytically  !
 ! A3    A(2,1,5)              111.208          calculate D2E/DX2 analytically  !
 ! A4    A(3,1,4)              107.7497         calculate D2E/DX2 analytically  !
 ! A5    A(3,1,5)              111.2081         calculate D2E/DX2 analytically  !
 ! A6    A(4,1,5)              111.068          calculate D2E/DX2 analytically  !
 ! A7    A(1,5,6)              111.4643         calculate D2E/DX2 analytically  !
 ! A8    A(1,5,7)              111.466          calculate D2E/DX2 analytically  !
 ! A9    A(1,5,8)              113.794          calculate D2E/DX2 analytically  !
 ! A10   A(6,5,7)              105.4983         calculate D2E/DX2 analytically  !
 ! A11   A(6,5,8)              107.0696         calculate D2E/DX2 analytically  !
 ! A12   A(7,5,8)              107.0714         calculate D2E/DX2 analytically  !
 ! A13   A(5,8,9)              124.4134         calculate D2E/DX2 analytically  !
 ! A14   A(5,8,10)             115.1392         calculate D2E/DX2 analytically  !
 ! A15   A(9,8,10)             120.4473         calculate D2E/DX2 analytically  !
 ! D1    D(2,1,5,6)            178.7881         calculate D2E/DX2 analytically  !
 ! D2    D(2,1,5,7)             61.1984         calculate D2E/DX2 analytically  !
 ! D3    D(2,1,5,8)            -60.0086         calculate D2E/DX2 analytically  !
 ! D4    D(3,1,5,6)            -61.2006         calculate D2E/DX2 analytically  !
 ! D5    D(3,1,5,7)           -178.7903         calculate D2E/DX2 analytically  !
 ! D6    D(3,1,5,8)             60.0027         calculate D2E/DX2 analytically  !
 ! D7    D(4,1,5,6)             58.7936         calculate D2E/DX2 analytically  !
 ! D8    D(4,1,5,7)            -58.7961         calculate D2E/DX2 analytically  !
 ! D9    D(4,1,5,8)            179.9969         calculate D2E/DX2 analytically  !
 ! D10   D(1,5,8,9)           -179.9956         calculate D2E/DX2 analytically  !
 ! D11   D(1,5,8,10)             0.008          calculate D2E/DX2 analytically  !
 ! D12   D(6,5,8,9)            -56.3722         calculate D2E/DX2 analytically  !
 ! D13   D(6,5,8,10)           123.6314         calculate D2E/DX2 analytically  !
 ! D14   D(7,5,8,9)             56.3774         calculate D2E/DX2 analytically  !
 ! D15   D(7,5,8,10)          -123.6191         calculate D2E/DX2 analytically  !
 --------------------------------------------------------------------------------
 Trust Radius=3.00D-01 FncErr=1.00D-07 GrdErr=1.00D-06 EigMax=2.50D+02 EigMin=1.00D-04
 Number of steps in this run=     49 maximum allowed number of steps=    100.
 Search for a saddle point of order  1.
 GradGradGradGradGradGradGradGradGradGradGradGradGradGradGradGradGradGrad

                          Input orientation:                          
 ---------------------------------------------------------------------
 Center     Atomic      Atomic             Coordinates (Angstroms)
 Number     Number       Type             X           Y           Z
 ---------------------------------------------------------------------
      1          6           0        1.778230   -0.209719   -0.000021
      2          1           0        1.868920   -0.849906    0.884860
      3          1           0        1.868847   -0.849921   -0.884900
      4          1           0        2.626355    0.481328   -0.000065
      5          6           0        0.451551    0.548818    0.000029
      6          1           0        0.365464    1.208204   -0.874431
      7          1           0        0.365491    1.208197    0.874493
      8          6           0       -0.770404   -0.353631    0.000016
      9          8           0       -1.912592    0.042772   -0.000027
     10          1           0       -0.550598   -1.452882    0.000113
 ---------------------------------------------------------------------
                    Distance matrix (angstroms):
                    1          2          3          4          5
     1  C    0.000000
     2  H    1.095937   0.000000
     3  H    1.095938   1.769760   0.000000
     4  H    1.094012   1.768893   1.768891   0.000000
     5  C    1.528220   2.179057   2.179059   2.175851   0.000000
     6  H    2.184263   3.096983   2.548754   2.530710   1.098581
     7  H    2.184283   2.548763   3.096997   2.530750   1.098578
     8  C    2.552694   2.827591   2.827548   3.497875   1.519075
     9  O    3.699448   3.984938   3.984869   4.560085   2.417696
    10  H    2.639866   2.645832   2.645850   3.719435   2.238550
                    6          7          8          9         10
     6  H    0.000000
     7  H    1.748924   0.000000
     8  C    2.119949   2.119970   0.000000
     9  O    2.704136   2.704194   1.209020   0.000000
    10  H    2.947096   2.947050   1.121012   2.022871   0.000000
 Stoichiometry    C3H6O
 Framework group  C1[X(C3H6O)]
 Deg. of freedom    24
 Full point group                 C1      NOp   1
 Largest Abelian subgroup         C1      NOp   1
 Largest concise Abelian subgroup C1      NOp   1
                         Standard orientation:                         
 ---------------------------------------------------------------------
 Center     Atomic      Atomic             Coordinates (Angstroms)
 Number     Number       Type             X           Y           Z
 ---------------------------------------------------------------------
      1          6           0        1.778230   -0.209719   -0.000021
      2          1           0        1.868920   -0.849906    0.884860
      3          1           0        1.868847   -0.849921   -0.884900
      4          1           0        2.626355    0.481328   -0.000065
      5          6           0        0.451551    0.548818    0.000029
      6          1           0        0.365464    1.208204   -0.874431
      7          1           0        0.365491    1.208197    0.874493
      8          6           0       -0.770404   -0.353631    0.000016
      9          8           0       -1.912592    0.042771   -0.000027
     10          1           0       -0.550598   -1.452882    0.000113
 ---------------------------------------------------------------------
 Rotational constants (GHZ):          32.5018310           4.1092274           3.8200511
 Standard basis: def2TZVP (5D, 7F)
 There are   180 symmetry adapted cartesian basis functions of A   symmetry.
 There are   160 symmetry adapted basis functions of A   symmetry.
   160 basis functions,   252 primitive gaussians,   180 cartesian basis functions
    16 alpha electrons       16 beta electrons
       nuclear repulsion energy       115.7636983755 Hartrees.
 NAtoms=   10 NActive=   10 NUniq=   10 SFac= 1.00D+00 NAtFMM=   60 NAOKFM=F Big=F
 Integral buffers will be    131072 words long.
 Raffenetti 2 integral format.
 Two-electron integral symmetry is turned on.
 Nuclear repulsion after empirical dispersion term =      115.7459563549 Hartrees.
 Standard density basis: Auto (5D, 7F)
   734 Density fitting functions
 There are   734 symmetry adapted density basis functions of A   symmetry.
 One-electron integrals computed using PRISM.
   1 Symmetry operations used in ECPInt.
 ECPInt:  NShTT=    2346 NPrTT=    6892 LenC2=    2331 LenP2D=    5891.
 LDataN:  DoStor=T MaxTD1= 6 Len=  172
 NBasis=   160 RedAO= T EigKep=  3.70D-04  NBF=   160
 NBsUse=   160 1.00D-06 EigRej= -1.00D+00 NBFU=   160
 NBasis=      160 NBas6D=      180 NTT=       12880   NTT6D=    16290
 NDBShl=      110 NDBF=        734 NDBF6D=      928  NNucDB=        0
 IDenFi=        2 ISolve=        0 FullAP=F BlkAPC=T NucTyp=        0
 TolInv= 1.00D-06 TolIt=  1.00D-10 IR12=0.
 FoFCou: FMM=F IPFlag=           0 FMFlag=           0 FMFlg1=           0
         NFxFlg=           0 DoJE=F BraDBF=T KetDBF=T FulRan=T
         wScrn=  0.000000 ICntrl=       600 IOpCl=  3 I1Cent=           6 NGrid=           0
         NMat0=    1 NMatS0=    928 NMatT0=    0 NMatD0=    1 NMtDS0=    0 NMtDT0=    0
 Petite list used in FoFCou.
 DBF EigKep=  1.46D-06 EigRej=  7.67D-07
 NDBF=    734  NBFD=   734
 NRank=   723 NBFDU=   723
 S*AI*S=  7.27711013134    
 ExpMin= 9.52D-02 ExpMax= 2.70D+04 ExpMxC= 9.22D+02 IAcc=3 IRadAn=         5 AccDes= 0.00D+00
 Harris functional with IExCor= 3630 and IRadAn=       5 diagonalized for initial guess.
 HarFok:  IExCor= 3630 AccDes= 0.00D+00 IRadAn=         5 IDoV= 1 UseB2=F ITyADJ=14
 ICtDFT=  3500011 ScaDFX=  1.000000  1.000000  1.000000  1.000000
 FoFCou: FMM=F IPFlag=           0 FMFlag=      100000 FMFlg1=           0
         NFxFlg=           0 DoJE=T BraDBF=F KetDBF=T FulRan=T
         wScrn=  0.000000 ICntrl=       500 IOpCl=  0 I1Cent=   200000004 NGrid=           0
         NMat0=    1 NMatS0=      1 NMatT0=    0 NMatD0=    1 NMtDS0=    0 NMtDT0=    0
 Petite list used in FoFCou.
 Requested convergence on RMS density matrix=1.00D-08 within 128 cycles.
 Requested convergence on MAX density matrix=1.00D-06.
 Requested convergence on             energy=1.00D-06.
 No special actions if energy rises.
 FoFCou: FMM=F IPFlag=           0 FMFlag=      100000 FMFlg1=           0
         NFxFlg=           0 DoJE=T BraDBF=T KetDBF=F FulRan=T
         wScrn=  0.000000 ICntrl=       500 IOpCl=  0 I1Cent=           5 NGrid=           0
         NMat0=    1 NMatS0=      1 NMatT0=    0 NMatD0=    1 NMtDS0=    0 NMtDT0=    0
 Symmetry not used in FoFCou.
 Initial convergence to 1.0D-05 achieved.  Increase integral accuracy.
 SCF Done:  E(RB97D3) =  -193.104181645     A.U. after   14 cycles
            NFock= 14  Conv=0.85D-08     -V/T= 2.0047
 DoSCS=F DFT=T ScalE2(SS,OS)=  1.000000  1.000000
 Range of M.O.s used for correlation:     1   160
 NBasis=   160 NAE=    16 NBE=    16 NFC=     0 NFV=     0
 NROrb=    160 NOA=    16 NOB=    16 NVA=   144 NVB=   144

 **** Warning!!: The largest alpha MO coefficient is  0.20835748D+02

   1 Symmetry operations used in ECPInt.
 ECPInt:  NShTT=    2346 NPrTT=    6892 LenC2=    2331 LenP2D=    5891.
 LDataN:  DoStor=T MaxTD1= 7 Len=  274
 Symmetrizing basis deriv contribution to polar:
 IMax=3 JMax=2 DiffMx= 0.00D+00
 G2DrvN: will do    11 centers at a time, making    1 passes.
 Calling FoFCou, ICntrl=  3507 FMM=F I1Cent=   4 AccDes= 0.00D+00.
 G2DrvN: will do    11 centers at a time, making    1 passes.
 Calling FoFCou, ICntrl=  3507 FMM=F I1Cent=1004 AccDes= 0.00D+00.
 End of G2Drv F.D. properties file   721 does not exist.
 End of G2Drv F.D. properties file   722 does not exist.
 End of G2Drv F.D. properties file   788 does not exist.
          IDoAtm=1111111111
          Differentiating once with respect to nuclear coordinates.
 FoFCou: FMM=F IPFlag=           0 FMFlag=      100000 FMFlg1=           0
         NFxFlg=           0 DoJE=F BraDBF=T KetDBF=F FulRan=T
         wScrn=  0.000000 ICntrl=       500 IOpCl=  0 I1Cent=           5 NGrid=           0
         NMat0=   33 NMatS0=     33 NMatT0=    0 NMatD0=   33 NMtDS0=    0 NMtDT0=    0
 Integrals replicated using symmetry in FoFCou.
          There are    33 degrees of freedom in the 1st order CPHF.  IDoFFX=6 NUNeed=     0.
     27 vectors produced by pass  0 Test12= 6.98D-15 3.03D-09 XBig12= 1.31D-01 1.56D-01.
 AX will form    27 AO Fock derivatives at one time.
     27 vectors produced by pass  1 Test12= 6.98D-15 3.03D-09 XBig12= 4.65D-03 1.65D-02.
     27 vectors produced by pass  2 Test12= 6.98D-15 3.03D-09 XBig12= 5.72D-05 1.43D-03.
     27 vectors produced by pass  3 Test12= 6.98D-15 3.03D-09 XBig12= 3.25D-07 1.07D-04.
     27 vectors produced by pass  4 Test12= 6.98D-15 3.03D-09 XBig12= 1.81D-10 1.82D-06.
     12 vectors produced by pass  5 Test12= 6.98D-15 3.03D-09 XBig12= 1.32D-13 5.84D-08.
 InvSVY:  IOpt=1 It=  1 EMax= 1.33D-15
 Solved reduced A of dimension   147 with    27 vectors.
 End of Minotr F.D. properties file   721 does not exist.
 End of Minotr F.D. properties file   722 does not exist.
 End of Minotr F.D. properties file   788 does not exist.

 **********************************************************************

            Population analysis using the SCF Density.

 **********************************************************************

 Orbital symmetries:
       Occupied  (A) (A) (A) (A) (A) (A) (A) (A) (A) (A) (A) (A)
                 (A) (A) (A) (A)
       Virtual   (A) (A) (A) (A) (A) (A) (A) (A) (A) (A) (A) (A)
                 (A) (A) (A) (A) (A) (A) (A) (A) (A) (A) (A) (A)
                 (A) (A) (A) (A) (A) (A) (A) (A) (A) (A) (A) (A)
                 (A) (A) (A) (A) (A) (A) (A) (A) (A) (A) (A) (A)
                 (A) (A) (A) (A) (A) (A) (A) (A) (A) (A) (A) (A)
                 (A) (A) (A) (A) (A) (A) (A) (A) (A) (A) (A) (A)
                 (A) (A) (A) (A) (A) (A) (A) (A) (A) (A) (A) (A)
                 (A) (A) (A) (A) (A) (A) (A) (A) (A) (A) (A) (A)
                 (A) (A) (A) (A) (A) (A) (A) (A) (A) (A) (A) (A)
                 (A) (A) (A) (A) (A) (A) (A) (A) (A) (A) (A) (A)
                 (A) (A) (A) (A) (A) (A) (A) (A) (A) (A) (A) (A)
                 (A) (A) (A) (A) (A) (A) (A) (A) (A) (A) (A) (A)
 The electronic state is 1-A.
 Alpha  occ. eigenvalues --  -18.75208  -9.99034  -9.91810  -9.90803  -0.96610
 Alpha  occ. eigenvalues --   -0.72247  -0.60055  -0.52517  -0.42411  -0.41270
 Alpha  occ. eigenvalues --   -0.40352  -0.35444  -0.34926  -0.33660  -0.31192
 Alpha  occ. eigenvalues --   -0.21546
 Alpha virt. eigenvalues --   -0.07214   0.02097   0.04810   0.07108   0.07207
 Alpha virt. eigenvalues --    0.08188   0.11327   0.13140   0.15450   0.17049
 Alpha virt. eigenvalues --    0.19408   0.20638   0.21123   0.22345   0.29364
 Alpha virt. eigenvalues --    0.30039   0.31056   0.35251   0.36045   0.37145
 Alpha virt. eigenvalues --    0.38677   0.38754   0.40965   0.41771   0.42977
 Alpha virt. eigenvalues --    0.45657   0.46816   0.50732   0.53112   0.56677
 Alpha virt. eigenvalues --    0.57236   0.62209   0.70085   0.73251   0.79262
 Alpha virt. eigenvalues --    0.81315   0.82006   0.86008   0.92072   0.94210
 Alpha virt. eigenvalues --    0.94504   1.01173   1.02136   1.04355   1.09660
 Alpha virt. eigenvalues --    1.16339   1.23321   1.33606   1.34679   1.42182
 Alpha virt. eigenvalues --    1.42540   1.45602   1.46589   1.48276   1.48575
 Alpha virt. eigenvalues --    1.51040   1.52885   1.58150   1.65544   1.69490
 Alpha virt. eigenvalues --    1.70012   1.73414   1.76420   1.84298   1.85907
 Alpha virt. eigenvalues --    1.92031   1.94033   1.95695   2.06271   2.07038
 Alpha virt. eigenvalues --    2.09200   2.11879   2.21526   2.23555   2.23833
 Alpha virt. eigenvalues --    2.28393   2.33290   2.34409   2.43763   2.44559
 Alpha virt. eigenvalues --    2.46272   2.49598   2.51332   2.57807   2.61054
 Alpha virt. eigenvalues --    2.63159   2.66713   2.69299   2.74672   2.77861
 Alpha virt. eigenvalues --    2.82387   2.86431   2.90445   2.97166   2.97451
 Alpha virt. eigenvalues --    3.00623   3.01656   3.02673   3.09043   3.10560
 Alpha virt. eigenvalues --    3.12348   3.15724   3.17870   3.20925   3.27520
 Alpha virt. eigenvalues --    3.28075   3.35615   3.39174   3.42357   3.45109
 Alpha virt. eigenvalues --    3.49929   3.70985   3.71407   3.74358   3.76291
 Alpha virt. eigenvalues --    3.83171   3.86319   3.88909   4.02521   4.11221
 Alpha virt. eigenvalues --    4.14770   4.26658   4.29455   4.37456   4.42359
 Alpha virt. eigenvalues --    4.47543   4.63264   4.69432   5.06320   5.07204
 Alpha virt. eigenvalues --    5.42914   5.52882   5.94660   6.17551   6.19835
 Alpha virt. eigenvalues --    6.24818   6.31155   6.65139   6.76988   6.90546
 Alpha virt. eigenvalues --   22.11209  22.22925  22.53177  43.50626
          Condensed to atoms (all electrons):
               1          2          3          4          5          6
     1  C    4.954767   0.402152   0.402155   0.391721   0.178918  -0.021250
     2  H    0.402152   0.575162  -0.028163  -0.023774  -0.040867   0.007557
     3  H    0.402155  -0.028163   0.575159  -0.023775  -0.040869  -0.004363
     4  H    0.391721  -0.023774  -0.023775   0.565410  -0.019309  -0.005146
     5  C    0.178918  -0.040867  -0.040869  -0.019309   5.497911   0.344324
     6  H   -0.021250   0.007557  -0.004363  -0.005146   0.344324   0.578175
     7  H   -0.021254  -0.004363   0.007556  -0.005145   0.344338  -0.014044
     8  C    0.020982  -0.002442  -0.002441   0.003987   0.165472  -0.007900
     9  O    0.008414   0.000189   0.000189  -0.000360  -0.117266   0.003759
    10  H    0.045506   0.002841   0.002840  -0.000951  -0.238185   0.010103
               7          8          9         10
     1  C   -0.021254   0.020982   0.008414   0.045506
     2  H   -0.004363  -0.002442   0.000189   0.002841
     3  H    0.007556  -0.002441   0.000189   0.002840
     4  H   -0.005145   0.003987  -0.000360  -0.000951
     5  C    0.344338   0.165472  -0.117266  -0.238185
     6  H   -0.014044  -0.007900   0.003759   0.010103
     7  H    0.578164  -0.007903   0.003756   0.010101
     8  C   -0.007903   4.660655   0.667388   0.438036
     9  O    0.003756   0.667388   7.746680  -0.069135
    10  H    0.010101   0.438036  -0.069135   0.741159
 Mulliken charges:
               1
     1  C   -0.362110
     2  H    0.111709
     3  H    0.111711
     4  H    0.117340
     5  C   -0.074466
     6  H    0.108785
     7  H    0.108792
     8  C    0.064165
     9  O   -0.243613
    10  H    0.057685
 Sum of Mulliken charges =  -0.00000
 Mulliken charges with hydrogens summed into heavy atoms:
               1
     1  C   -0.021349
     5  C    0.143111
     8  C    0.121850
     9  O   -0.243613
 APT charges:
               1
     1  C   -1.108172
     2  H    0.307179
     3  H    0.307172
     4  H    0.458528
     5  C   -0.343790
     6  H    0.309102
     7  H    0.309123
     8  C   -0.579506
     9  O    0.092508
    10  H    0.247857
 Sum of APT charges =  -0.00000
 APT charges with hydrogens summed into heavy atoms:
               1
     1  C   -0.035293
     5  C    0.274434
     8  C   -0.331649
     9  O    0.092508
 Electronic spatial extent (au):  <R**2>=            345.5995
 Charge=             -0.0000 electrons
 Dipole moment (field-independent basis, Debye):
    X=              2.7397    Y=             -0.2346    Z=              0.0001  Tot=              2.7497
 Quadrupole moment (field-independent basis, Debye-Ang):
   XX=            -31.2360   YY=            -24.5517   ZZ=            -24.2568
   XY=              0.9388   XZ=             -0.0002   YZ=              0.0000
 Traceless Quadrupole moment (field-independent basis, Debye-Ang):
   XX=             -4.5545   YY=              2.1298   ZZ=              2.4247
   XY=              0.9388   XZ=             -0.0002   YZ=              0.0000
 Octapole moment (field-independent basis, Debye-Ang**2):
  XXX=              7.3761  YYY=              0.5507  ZZZ=             -0.0000  XYY=             -1.8020
  XXY=              0.4811  XXZ=              0.0002  XZZ=             -2.3457  YZZ=              0.4979
  YYZ=              0.0001  XYZ=             -0.0000
 Hexadecapole moment (field-independent basis, Debye-Ang**3):
 XXXX=           -363.5857 YYYY=            -72.0547 ZZZZ=            -37.4615 XXXY=              3.5299
 XXXZ=             -0.0005 YYYX=              1.4352 YYYZ=              0.0001 ZZZX=              0.0003
 ZZZY=              0.0002 XXYY=            -68.4687 XXZZ=            -62.0395 YYZZ=            -16.7036
 XXYZ=             -0.0001 YYXZ=             -0.0000 ZZXY=             -0.8457
 N-N= 1.157459563549D+02 E-N=-6.823631711643D+02  KE= 1.922103630190D+02
  Exact polarizability:       0.000       0.000       0.000       0.000       0.000       0.000
 Approx polarizability:      77.198      -4.774      63.880       0.001      -0.001      52.443
   1 Symmetry operations used in ECPInt.
 ECPInt:  NShTT=    2346 NPrTT=    6892 LenC2=    2331 LenP2D=    5891.
 LDataN:  DoStor=T MaxTD1= 8 Len=  415
 Calling FoFJK, ICntrl=    100527 FMM=F ISym2X=0 I1Cent= 4 IOpClX= 0 NMat=1 NMatS=1 NMatT=0.
 ***** Axes restored to original set *****
 -------------------------------------------------------------------
 Center     Atomic                   Forces (Hartrees/Bohr)
 Number     Number              X              Y              Z
 -------------------------------------------------------------------
      1        6          -0.000163251    0.000073654    0.000001316
      2        1           0.000012887   -0.000080060    0.000117120
      3        1           0.000012035   -0.000079365   -0.000116653
      4        1           0.000115979    0.000091710    0.000000393
      5        6           0.000007880   -0.000198024   -0.000008590
      6        1          -0.000045218    0.000055777   -0.000095381
      7        1          -0.000045477    0.000054248    0.000097819
      8        6          -0.000176827    0.000142864    0.000008912
      9        8           0.000313888   -0.000102091   -0.000002485
     10        1          -0.000031895    0.000041286   -0.000002450
 -------------------------------------------------------------------
 Cartesian Forces:  Max     0.000313888 RMS     0.000104228
 FormGI is forming the generalized inverse of G from B-inverse, IUseBI=4.

 GradGradGradGradGradGradGradGradGradGradGradGradGradGradGradGradGradGrad
 Berny optimization.
 Internal  Forces:  Max     0.000329973 RMS     0.000075925
 Search for a saddle point.
 Step number   1 out of a maximum of   49
 All quantities printed in internal units (Hartrees-Bohrs-Radians)
 Swapping is turned off.
 Second derivative matrix not updated -- analytic derivatives used.
 ITU=  0
     Eigenvalues ---   -0.00091   0.00174   0.03040   0.03792   0.04352
     Eigenvalues ---    0.04360   0.04816   0.07230   0.10291   0.11678
     Eigenvalues ---    0.12549   0.13632   0.15709   0.17402   0.21026
     Eigenvalues ---    0.25723   0.27397   0.29615   0.31624   0.32331
     Eigenvalues ---    0.32470   0.32588   0.33427   0.81736
 Eigenvectors required to have negative eigenvalues:
                          D15       D13       D14       D12       D11
   1                    0.42807   0.42806   0.41073   0.41072   0.38927
                          D10       D9        D6        D3        A8
   1                    0.37193   0.04017   0.03940   0.03940  -0.01940
 RFO step:  Lambda0=3.890521645D-11 Lambda=-5.38349836D-07.
 Linear search not attempted -- option 19 set.
 Iteration  1 RMS(Cart)=  0.00030255 RMS(Int)=  0.00000006
 Iteration  2 RMS(Cart)=  0.00000005 RMS(Int)=  0.00000003
 Variable       Old X    -DE/DX   Delta X   Delta X   Delta X     New X
                                 (Linear)    (Quad)   (Total)
    R1        2.07102   0.00014   0.00000   0.00044   0.00044   2.07146
    R2        2.07102   0.00014   0.00000   0.00043   0.00043   2.07146
    R3        2.06738   0.00015   0.00000   0.00045   0.00045   2.06783
    R4        2.88792  -0.00002   0.00000  -0.00020  -0.00020   2.88772
    R5        2.07602   0.00011   0.00000   0.00036   0.00036   2.07638
    R6        2.07601   0.00011   0.00000   0.00037   0.00037   2.07638
    R7        2.87064  -0.00013   0.00000  -0.00044  -0.00044   2.87020
    R8        2.28472  -0.00033   0.00000  -0.00036  -0.00036   2.28435
    R9        2.11841  -0.00005   0.00000  -0.00011  -0.00011   2.11829
    A1        1.87953   0.00000   0.00000  -0.00001  -0.00001   1.87952
    A2        1.88059  -0.00000   0.00000  -0.00007  -0.00007   1.88052
    A3        1.94095  -0.00000   0.00000   0.00002   0.00002   1.94097
    A4        1.88059  -0.00000   0.00000  -0.00007  -0.00007   1.88052
    A5        1.94095  -0.00000   0.00000   0.00002   0.00002   1.94097
    A6        1.93850   0.00000   0.00000   0.00010   0.00010   1.93860
    A7        1.94542   0.00002   0.00000   0.00026   0.00026   1.94568
    A8        1.94545   0.00002   0.00000   0.00023   0.00023   1.94568
    A9        1.98608   0.00002   0.00000   0.00024   0.00024   1.98632
   A10        1.84129   0.00000   0.00000  -0.00000  -0.00000   1.84129
   A11        1.86872  -0.00003   0.00000  -0.00038  -0.00038   1.86834
   A12        1.86875  -0.00003   0.00000  -0.00041  -0.00041   1.86834
   A13        2.17142  -0.00003   0.00000  -0.00014  -0.00014   2.17128
   A14        2.00956   0.00004   0.00000   0.00025   0.00025   2.00980
   A15        2.10220  -0.00001   0.00000  -0.00010  -0.00010   2.10210
    D1        3.12044   0.00001   0.00000   0.00017   0.00017   3.12061
    D2        1.06811  -0.00002   0.00000  -0.00015  -0.00015   1.06797
    D3       -1.04735  -0.00000   0.00000   0.00004   0.00004  -1.04730
    D4       -1.06815   0.00001   0.00000   0.00019   0.00019  -1.06797
    D5       -3.12048  -0.00001   0.00000  -0.00013  -0.00013  -3.12061
    D6        1.04724   0.00000   0.00000   0.00006   0.00006   1.04730
    D7        1.02614   0.00001   0.00000   0.00018   0.00018   1.02632
    D8       -1.02619  -0.00001   0.00000  -0.00014  -0.00014  -1.02632
    D9        3.14154   0.00000   0.00000   0.00005   0.00005  -3.14159
   D10       -3.14152   0.00000   0.00000  -0.00008  -0.00008   3.14159
   D11        0.00014  -0.00000   0.00000  -0.00014  -0.00014  -0.00000
   D12       -0.98388   0.00002   0.00000   0.00014   0.00014  -0.98374
   D13        2.15778   0.00001   0.00000   0.00007   0.00007   2.15785
   D14        0.98397  -0.00001   0.00000  -0.00023  -0.00023   0.98374
   D15       -2.15756  -0.00001   0.00000  -0.00029  -0.00029  -2.15785
         Item               Value     Threshold  Converged?
 Maximum Force            0.000330     0.000450     YES
 RMS     Force            0.000076     0.000300     YES
 Maximum Displacement     0.000744     0.001800     YES
 RMS     Displacement     0.000303     0.001200     YES
 Predicted change in Energy=-2.691555D-07
 Optimization completed.
    -- Stationary point found.
                           ----------------------------
                           !   Optimized Parameters   !
                           ! (Angstroms and Degrees)  !
 --------------------------                            --------------------------
 ! Name  Definition              Value          Derivative Info.                !
 --------------------------------------------------------------------------------
 ! R1    R(1,2)                  1.0959         -DE/DX =    0.0001              !
 ! R2    R(1,3)                  1.0959         -DE/DX =    0.0001              !
 ! R3    R(1,4)                  1.094          -DE/DX =    0.0001              !
 ! R4    R(1,5)                  1.5282         -DE/DX =    0.0                 !
 ! R5    R(5,6)                  1.0986         -DE/DX =    0.0001              !
 ! R6    R(5,7)                  1.0986         -DE/DX =    0.0001              !
 ! R7    R(5,8)                  1.5191         -DE/DX =   -0.0001              !
 ! R8    R(8,9)                  1.209          -DE/DX =   -0.0003              !
 ! R9    R(8,10)                 1.121          -DE/DX =    0.0                 !
 ! A1    A(2,1,3)              107.6889         -DE/DX =    0.0                 !
 ! A2    A(2,1,4)              107.75           -DE/DX =    0.0                 !
 ! A3    A(2,1,5)              111.208          -DE/DX =    0.0                 !
 ! A4    A(3,1,4)              107.7497         -DE/DX =    0.0                 !
 ! A5    A(3,1,5)              111.2081         -DE/DX =    0.0                 !
 ! A6    A(4,1,5)              111.068          -DE/DX =    0.0                 !
 ! A7    A(1,5,6)              111.4643         -DE/DX =    0.0                 !
 ! A8    A(1,5,7)              111.466          -DE/DX =    0.0                 !
 ! A9    A(1,5,8)              113.794          -DE/DX =    0.0                 !
 ! A10   A(6,5,7)              105.4983         -DE/DX =    0.0                 !
 ! A11   A(6,5,8)              107.0696         -DE/DX =    0.0                 !
 ! A12   A(7,5,8)              107.0714         -DE/DX =    0.0                 !
 ! A13   A(5,8,9)              124.4134         -DE/DX =    0.0                 !
 ! A14   A(5,8,10)             115.1392         -DE/DX =    0.0                 !
 ! A15   A(9,8,10)             120.4473         -DE/DX =    0.0                 !
 ! D1    D(2,1,5,6)            178.7881         -DE/DX =    0.0                 !
 ! D2    D(2,1,5,7)             61.1984         -DE/DX =    0.0                 !
 ! D3    D(2,1,5,8)            -60.0086         -DE/DX =    0.0                 !
 ! D4    D(3,1,5,6)            -61.2006         -DE/DX =    0.0                 !
 ! D5    D(3,1,5,7)           -178.7903         -DE/DX =    0.0                 !
 ! D6    D(3,1,5,8)             60.0027         -DE/DX =    0.0                 !
 ! D7    D(4,1,5,6)             58.7936         -DE/DX =    0.0                 !
 ! D8    D(4,1,5,7)            -58.7961         -DE/DX =    0.0                 !
 ! D9    D(4,1,5,8)           -180.0031         -DE/DX =    0.0                 !
 ! D10   D(1,5,8,9)            180.0044         -DE/DX =    0.0                 !
 ! D11   D(1,5,8,10)             0.008          -DE/DX =    0.0                 !
 ! D12   D(6,5,8,9)            -56.3722         -DE/DX =    0.0                 !
 ! D13   D(6,5,8,10)           123.6314         -DE/DX =    0.0                 !
 ! D14   D(7,5,8,9)             56.3774         -DE/DX =    0.0                 !
 ! D15   D(7,5,8,10)          -123.6191         -DE/DX =    0.0                 !
 --------------------------------------------------------------------------------
 GradGradGradGradGradGradGradGradGradGradGradGradGradGradGradGradGradGrad

                          Input orientation:                          
 ---------------------------------------------------------------------
 Center     Atomic      Atomic             Coordinates (Angstroms)
 Number     Number       Type             X           Y           Z
 ---------------------------------------------------------------------
      1          6           0        1.778230   -0.209719   -0.000021
      2          1           0        1.868920   -0.849906    0.884860
      3          1           0        1.868847   -0.849921   -0.884900
      4          1           0        2.626355    0.481328   -0.000065
      5          6           0        0.451551    0.548818    0.000029
      6          1           0        0.365464    1.208204   -0.874431
      7          1           0        0.365491    1.208197    0.874493
      8          6           0       -0.770404   -0.353631    0.000016
      9          8           0       -1.912592    0.042772   -0.000027
     10          1           0       -0.550598   -1.452882    0.000113
 ---------------------------------------------------------------------
                    Distance matrix (angstroms):
                    1          2          3          4          5
     1  C    0.000000
     2  H    1.095937   0.000000
     3  H    1.095938   1.769760   0.000000
     4  H    1.094012   1.768893   1.768891   0.000000
     5  C    1.528220   2.179057   2.179059   2.175851   0.000000
     6  H    2.184263   3.096983   2.548754   2.530710   1.098581
     7  H    2.184283   2.548763   3.096997   2.530750   1.098578
     8  C    2.552694   2.827591   2.827548   3.497875   1.519075
     9  O    3.699448   3.984938   3.984869   4.560085   2.417696
    10  H    2.639866   2.645832   2.645850   3.719435   2.238550
                    6          7          8          9         10
     6  H    0.000000
     7  H    1.748924   0.000000
     8  C    2.119949   2.119970   0.000000
     9  O    2.704136   2.704194   1.209020   0.000000
    10  H    2.947096   2.947050   1.121012   2.022871   0.000000
 Stoichiometry    C3H6O
 Framework group  C1[X(C3H6O)]
 Deg. of freedom    24
 Full point group                 C1      NOp   1
 Largest Abelian subgroup         C1      NOp   1
 Largest concise Abelian subgroup C1      NOp   1
                         Standard orientation:                         
 ---------------------------------------------------------------------
 Center     Atomic      Atomic             Coordinates (Angstroms)
 Number     Number       Type             X           Y           Z
 ---------------------------------------------------------------------
      1          6           0        1.778230   -0.209719   -0.000021
      2          1           0        1.868920   -0.849906    0.884860
      3          1           0        1.868847   -0.849921   -0.884900
      4          1           0        2.626355    0.481328   -0.000065
      5          6           0        0.451551    0.548818    0.000029
      6          1           0        0.365464    1.208204   -0.874431
      7          1           0        0.365491    1.208197    0.874493
      8          6           0       -0.770404   -0.353631    0.000016
      9          8           0       -1.912592    0.042771   -0.000027
     10          1           0       -0.550598   -1.452882    0.000113
 ---------------------------------------------------------------------
 Rotational constants (GHZ):          32.5018310           4.1092274           3.8200511
 Unable to Open any file for archive entry.
 1\1\GINC-RTX\FTS\RB97D3\def2TZVP/Auto\C3H6O1\MONTY\21-Mar-2026\0\\# op
 t=(calcfc,ts,noeigen) freq b97d3/def2tzvp/auto EmpiricalDispersion=GD3
 BJ\\propionaldehyde s-cis\\0,1\C,1.77823,-0.209719,-0.000021\H,1.86892
 ,-0.849906,0.88486\H,1.868847,-0.849921,-0.8849\H,2.626355,0.481328,-0
 .000065\C,0.451551,0.548818,0.000029\H,0.365464,1.208204,-0.874431\H,0
 .365491,1.208197,0.874493\C,-0.770404,-0.353631,0.000016\O,-1.912592,0
 .042772,-0.000027\H,-0.550598,-1.452882,0.000113\\Version=ES64L-G16Rev
 C.01\State=1-A\HF=-193.1041816\RMSD=8.529e-09\RMSF=1.042e-04\Dipole=1.
 0778843,-0.0923165,0.0000381\Polar=0.,0.,0.,0.,0.,0.\Quadrupole=-3.386
 159,1.5834555,1.8027035,0.6979983,-0.000121,0.0000297\PG=C01 [X(C3H6O1
 )]\\@
 The archive entry for this job was punched.


 BLESSED ARE THOSE WHO NOUGHT EXPECT,
 FOR THEY SHALL NOT BE DISAPPOINTED..  WALCOT - ODE TO PITT
 Job cpu time:       0 days  0 hours  1 minutes 38.9 seconds.
 Elapsed time:       0 days  0 hours  0 minutes 24.7 seconds.
 File lengths (MBytes):  RWF=     32 Int=      0 D2E=      0 Chk=      7 Scr=      1
 Normal termination of Gaussian 16 at Sat Mar 21 20:14:55 2026.
 Link1:  Proceeding to internal job step number  2.
 ----------------------------------------------------------------------
 #N Geom=AllCheck Guess=TCheck SCRF=Check GenChk RB97D3/def2TZVP/Auto F
 req
 ----------------------------------------------------------------------
 1/5=1,10=4,11=1,29=7,30=1,38=1,40=1/1,3;
 2/12=2,40=1/2;
 3/5=44,7=101,11=2,14=-4,25=1,30=1,70=2,71=2,74=-59,82=28,116=1,124=41,140=1/1,2,3;
 4/5=101/1;
 5/5=2,38=6,98=1/2;
 8/6=4,10=90,11=11/1;
 11/6=1,8=1,9=11,15=111,16=1/1,2,10;
 10/6=1/2;
 6/7=2,8=2,9=2,10=2,28=1/1;
 7/8=1,10=1,25=1/1,2,3,16;
 1/5=1,10=4,11=1,30=1/3;
 99//99;
 Structure from the checkpoint file:  "/home/monty/scratch/Gau-138301.chk"
 ---------------------
 propionaldehyde s-cis
 ---------------------
 Charge =  0 Multiplicity = 1
 Redundant internal coordinates found in file.  (old form).
 C,0,1.77823,-0.209719,-0.000021
 H,0,1.86892,-0.849906,0.88486
 H,0,1.868847,-0.849921,-0.8849
 H,0,2.626355,0.481328,-0.000065
 C,0,0.451551,0.548818,0.000029
 H,0,0.365464,1.208204,-0.874431
 H,0,0.365491,1.208197,0.874493
 C,0,-0.770404,-0.353631,0.000016
 O,0,-1.912592,0.042772,-0.000027
 H,0,-0.550598,-1.452882,0.000113
 Recover connectivity data from disk.

 GradGradGradGradGradGradGradGradGradGradGradGradGradGradGradGradGradGrad
 Berny optimization.
 Initialization pass.
                           ----------------------------
                           !    Initial Parameters    !
                           ! (Angstroms and Degrees)  !
 --------------------------                            --------------------------
 ! Name  Definition              Value          Derivative Info.                !
 --------------------------------------------------------------------------------
 ! R1    R(1,2)                  1.0959         calculate D2E/DX2 analytically  !
 ! R2    R(1,3)                  1.0959         calculate D2E/DX2 analytically  !
 ! R3    R(1,4)                  1.094          calculate D2E/DX2 analytically  !
 ! R4    R(1,5)                  1.5282         calculate D2E/DX2 analytically  !
 ! R5    R(5,6)                  1.0986         calculate D2E/DX2 analytically  !
 ! R6    R(5,7)                  1.0986         calculate D2E/DX2 analytically  !
 ! R7    R(5,8)                  1.5191         calculate D2E/DX2 analytically  !
 ! R8    R(8,9)                  1.209          calculate D2E/DX2 analytically  !
 ! R9    R(8,10)                 1.121          calculate D2E/DX2 analytically  !
 ! A1    A(2,1,3)              107.6889         calculate D2E/DX2 analytically  !
 ! A2    A(2,1,4)              107.75           calculate D2E/DX2 analytically  !
 ! A3    A(2,1,5)              111.208          calculate D2E/DX2 analytically  !
 ! A4    A(3,1,4)              107.7497         calculate D2E/DX2 analytically  !
 ! A5    A(3,1,5)              111.2081         calculate D2E/DX2 analytically  !
 ! A6    A(4,1,5)              111.068          calculate D2E/DX2 analytically  !
 ! A7    A(1,5,6)              111.4643         calculate D2E/DX2 analytically  !
 ! A8    A(1,5,7)              111.466          calculate D2E/DX2 analytically  !
 ! A9    A(1,5,8)              113.794          calculate D2E/DX2 analytically  !
 ! A10   A(6,5,7)              105.4983         calculate D2E/DX2 analytically  !
 ! A11   A(6,5,8)              107.0696         calculate D2E/DX2 analytically  !
 ! A12   A(7,5,8)              107.0714         calculate D2E/DX2 analytically  !
 ! A13   A(5,8,9)              124.4134         calculate D2E/DX2 analytically  !
 ! A14   A(5,8,10)             115.1392         calculate D2E/DX2 analytically  !
 ! A15   A(9,8,10)             120.4473         calculate D2E/DX2 analytically  !
 ! D1    D(2,1,5,6)            178.7881         calculate D2E/DX2 analytically  !
 ! D2    D(2,1,5,7)             61.1984         calculate D2E/DX2 analytically  !
 ! D3    D(2,1,5,8)            -60.0086         calculate D2E/DX2 analytically  !
 ! D4    D(3,1,5,6)            -61.2006         calculate D2E/DX2 analytically  !
 ! D5    D(3,1,5,7)           -178.7903         calculate D2E/DX2 analytically  !
 ! D6    D(3,1,5,8)             60.0027         calculate D2E/DX2 analytically  !
 ! D7    D(4,1,5,6)             58.7936         calculate D2E/DX2 analytically  !
 ! D8    D(4,1,5,7)            -58.7961         calculate D2E/DX2 analytically  !
 ! D9    D(4,1,5,8)            179.9969         calculate D2E/DX2 analytically  !
 ! D10   D(1,5,8,9)           -179.9956         calculate D2E/DX2 analytically  !
 ! D11   D(1,5,8,10)             0.008          calculate D2E/DX2 analytically  !
 ! D12   D(6,5,8,9)            -56.3722         calculate D2E/DX2 analytically  !
 ! D13   D(6,5,8,10)           123.6314         calculate D2E/DX2 analytically  !
 ! D14   D(7,5,8,9)             56.3774         calculate D2E/DX2 analytically  !
 ! D15   D(7,5,8,10)          -123.6191         calculate D2E/DX2 analytically  !
 --------------------------------------------------------------------------------
 Trust Radius=3.00D-01 FncErr=1.00D-07 GrdErr=1.00D-07 EigMax=2.50D+02 EigMin=1.00D-04
 Number of steps in this run=      2 maximum allowed number of steps=      2.
 Search for a saddle point of order  1.
 GradGradGradGradGradGradGradGradGradGradGradGradGradGradGradGradGradGrad

                          Input orientation:                          
 ---------------------------------------------------------------------
 Center     Atomic      Atomic             Coordinates (Angstroms)
 Number     Number       Type             X           Y           Z
 ---------------------------------------------------------------------
      1          6           0        1.778230   -0.209719   -0.000021
      2          1           0        1.868920   -0.849906    0.884860
      3          1           0        1.868847   -0.849921   -0.884900
      4          1           0        2.626355    0.481328   -0.000065
      5          6           0        0.451551    0.548818    0.000029
      6          1           0        0.365464    1.208204   -0.874431
      7          1           0        0.365491    1.208197    0.874493
      8          6           0       -0.770404   -0.353631    0.000016
      9          8           0       -1.912592    0.042772   -0.000027
     10          1           0       -0.550598   -1.452882    0.000113
 ---------------------------------------------------------------------
                    Distance matrix (angstroms):
                    1          2          3          4          5
     1  C    0.000000
     2  H    1.095937   0.000000
     3  H    1.095938   1.769760   0.000000
     4  H    1.094012   1.768893   1.768891   0.000000
     5  C    1.528220   2.179057   2.179059   2.175851   0.000000
     6  H    2.184263   3.096983   2.548754   2.530710   1.098581
     7  H    2.184283   2.548763   3.096997   2.530750   1.098578
     8  C    2.552694   2.827591   2.827548   3.497875   1.519075
     9  O    3.699448   3.984938   3.984869   4.560085   2.417696
    10  H    2.639866   2.645832   2.645850   3.719435   2.238550
                    6          7          8          9         10
     6  H    0.000000
     7  H    1.748924   0.000000
     8  C    2.119949   2.119970   0.000000
     9  O    2.704136   2.704194   1.209020   0.000000
    10  H    2.947096   2.947050   1.121012   2.022871   0.000000
 Stoichiometry    C3H6O
 Framework group  C1[X(C3H6O)]
 Deg. of freedom    24
 Full point group                 C1      NOp   1
 Largest Abelian subgroup         C1      NOp   1
 Largest concise Abelian subgroup C1      NOp   1
                         Standard orientation:                         
 ---------------------------------------------------------------------
 Center     Atomic      Atomic             Coordinates (Angstroms)
 Number     Number       Type             X           Y           Z
 ---------------------------------------------------------------------
      1          6           0        1.778230   -0.209719   -0.000021
      2          1           0        1.868920   -0.849906    0.884860
      3          1           0        1.868847   -0.849921   -0.884900
      4          1           0        2.626355    0.481328   -0.000065
      5          6           0        0.451551    0.548818    0.000029
      6          1           0        0.365464    1.208204   -0.874431
      7          1           0        0.365491    1.208197    0.874493
      8          6           0       -0.770404   -0.353631    0.000016
      9          8           0       -1.912592    0.042771   -0.000027
     10          1           0       -0.550598   -1.452882    0.000113
 ---------------------------------------------------------------------
 Rotational constants (GHZ):          32.5018310           4.1092274           3.8200511
 Standard basis: def2TZVP (5D, 7F)
 There are   180 symmetry adapted cartesian basis functions of A   symmetry.
 There are   160 symmetry adapted basis functions of A   symmetry.
   160 basis functions,   252 primitive gaussians,   180 cartesian basis functions
    16 alpha electrons       16 beta electrons
       nuclear repulsion energy       115.7636983755 Hartrees.
 NAtoms=   10 NActive=   10 NUniq=   10 SFac= 1.00D+00 NAtFMM=   60 NAOKFM=F Big=F
 Integral buffers will be    131072 words long.
 Raffenetti 2 integral format.
 Two-electron integral symmetry is turned on.
 Nuclear repulsion after empirical dispersion term =      115.7459563549 Hartrees.
 Standard density basis: Auto (5D, 7F)
   734 Density fitting functions
 There are   734 symmetry adapted density basis functions of A   symmetry.
 One-electron integrals computed using PRISM.
   1 Symmetry operations used in ECPInt.
 ECPInt:  NShTT=    2346 NPrTT=    6892 LenC2=    2331 LenP2D=    5891.
 LDataN:  DoStor=T MaxTD1= 6 Len=  172
 NBasis=   160 RedAO= T EigKep=  3.70D-04  NBF=   160
 NBsUse=   160 1.00D-06 EigRej= -1.00D+00 NBFU=   160
 NBasis=      160 NBas6D=      180 NTT=       12880   NTT6D=    16290
 NDBShl=      110 NDBF=        734 NDBF6D=      928  NNucDB=        0
 IDenFi=        2 ISolve=        0 FullAP=F BlkAPC=T NucTyp=        0
 TolInv= 1.00D-06 TolIt=  1.00D-10 IR12=0.
 FoFCou: FMM=F IPFlag=           0 FMFlag=           0 FMFlg1=           0
         NFxFlg=           0 DoJE=F BraDBF=T KetDBF=T FulRan=T
         wScrn=  0.000000 ICntrl=       600 IOpCl=  3 I1Cent=           6 NGrid=           0
         NMat0=    1 NMatS0=    928 NMatT0=    0 NMatD0=    1 NMtDS0=    0 NMtDT0=    0
 Petite list used in FoFCou.
 DBF EigKep=  1.46D-06 EigRej=  7.67D-07
 NDBF=    734  NBFD=   734
 NRank=   723 NBFDU=   723
 S*AI*S=  7.27711013134    
 Initial guess from the checkpoint file:  "/home/monty/scratch/Gau-138301.chk"
 B after Tr=    -0.000000   -0.000000    0.000000
         Rot=    1.000000   -0.000000   -0.000000    0.000000 Ang=   0.00 deg.
 Recovered     1 saved fitting vectors from chk file.
 Requested convergence on RMS density matrix=1.00D-08 within 128 cycles.
 Requested convergence on MAX density matrix=1.00D-06.
 Requested convergence on             energy=1.00D-06.
 No special actions if energy rises.
 FoFCou: FMM=F IPFlag=           0 FMFlag=      100000 FMFlg1=           0
         NFxFlg=           0 DoJE=T BraDBF=T KetDBF=F FulRan=T
         wScrn=  0.000000 ICntrl=       500 IOpCl=  0 I1Cent=           5 NGrid=           0
         NMat0=    1 NMatS0=      1 NMatT0=    0 NMatD0=    1 NMtDS0=    0 NMtDT0=    0
 Symmetry not used in FoFCou.
 SCF Done:  E(RB97D3) =  -193.104181645     A.U. after    1 cycles
            NFock=  1  Conv=0.17D-08     -V/T= 2.0047
 DoSCS=F DFT=T ScalE2(SS,OS)=  1.000000  1.000000
 Range of M.O.s used for correlation:     1   160
 NBasis=   160 NAE=    16 NBE=    16 NFC=     0 NFV=     0
 NROrb=    160 NOA=    16 NOB=    16 NVA=   144 NVB=   144

 **** Warning!!: The largest alpha MO coefficient is  0.20835748D+02

   1 Symmetry operations used in ECPInt.
 ECPInt:  NShTT=    2346 NPrTT=    6892 LenC2=    2331 LenP2D=    5891.
 LDataN:  DoStor=T MaxTD1= 7 Len=  274
 Symmetrizing basis deriv contribution to polar:
 IMax=3 JMax=2 DiffMx= 0.00D+00
 G2DrvN: will do    11 centers at a time, making    1 passes.
 Calling FoFCou, ICntrl=  3507 FMM=F I1Cent=   4 AccDes= 0.00D+00.
 G2DrvN: will do    11 centers at a time, making    1 passes.
 Calling FoFCou, ICntrl=  3507 FMM=F I1Cent=1004 AccDes= 0.00D+00.
 End of G2Drv F.D. properties file   721 does not exist.
 End of G2Drv F.D. properties file   722 does not exist.
 End of G2Drv F.D. properties file   788 does not exist.
          IDoAtm=1111111111
          Differentiating once with respect to electric field.
                with respect to dipole field.
          Differentiating once with respect to nuclear coordinates.
 FoFCou: FMM=F IPFlag=           0 FMFlag=      100000 FMFlg1=           0
         NFxFlg=           0 DoJE=F BraDBF=T KetDBF=F FulRan=T
         wScrn=  0.000000 ICntrl=       500 IOpCl=  0 I1Cent=           5 NGrid=           0
         NMat0=   33 NMatS0=     33 NMatT0=    0 NMatD0=   33 NMtDS0=    0 NMtDT0=    0
 Integrals replicated using symmetry in FoFCou.
          There are    33 degrees of freedom in the 1st order CPHF.  IDoFFX=6 NUNeed=     3.
     30 vectors produced by pass  0 Test12= 6.98D-15 3.03D-09 XBig12= 4.92D+01 3.51D+00.
 AX will form    30 AO Fock derivatives at one time.
     30 vectors produced by pass  1 Test12= 6.98D-15 3.03D-09 XBig12= 2.76D+01 1.44D+00.
     30 vectors produced by pass  2 Test12= 6.98D-15 3.03D-09 XBig12= 1.55D-01 6.32D-02.
     30 vectors produced by pass  3 Test12= 6.98D-15 3.03D-09 XBig12= 6.69D-04 4.28D-03.
     29 vectors produced by pass  4 Test12= 6.98D-15 3.03D-09 XBig12= 2.39D-07 6.00D-05.
      9 vectors produced by pass  5 Test12= 6.98D-15 3.03D-09 XBig12= 1.11D-10 1.43D-06.
      2 vectors produced by pass  6 Test12= 6.98D-15 3.03D-09 XBig12= 5.99D-14 3.89D-08.
 InvSVY:  IOpt=1 It=  1 EMax= 4.44D-15
 Solved reduced A of dimension   160 with    33 vectors.
 Isotropic polarizability for W=    0.000000       40.74 Bohr**3.
 End of Minotr F.D. properties file   721 does not exist.
 End of Minotr F.D. properties file   722 does not exist.
 End of Minotr F.D. properties file   788 does not exist.

 **********************************************************************

            Population analysis using the SCF Density.

 **********************************************************************

 Orbital symmetries:
       Occupied  (A) (A) (A) (A) (A) (A) (A) (A) (A) (A) (A) (A)
                 (A) (A) (A) (A)
       Virtual   (A) (A) (A) (A) (A) (A) (A) (A) (A) (A) (A) (A)
                 (A) (A) (A) (A) (A) (A) (A) (A) (A) (A) (A) (A)
                 (A) (A) (A) (A) (A) (A) (A) (A) (A) (A) (A) (A)
                 (A) (A) (A) (A) (A) (A) (A) (A) (A) (A) (A) (A)
                 (A) (A) (A) (A) (A) (A) (A) (A) (A) (A) (A) (A)
                 (A) (A) (A) (A) (A) (A) (A) (A) (A) (A) (A) (A)
                 (A) (A) (A) (A) (A) (A) (A) (A) (A) (A) (A) (A)
                 (A) (A) (A) (A) (A) (A) (A) (A) (A) (A) (A) (A)
                 (A) (A) (A) (A) (A) (A) (A) (A) (A) (A) (A) (A)
                 (A) (A) (A) (A) (A) (A) (A) (A) (A) (A) (A) (A)
                 (A) (A) (A) (A) (A) (A) (A) (A) (A) (A) (A) (A)
                 (A) (A) (A) (A) (A) (A) (A) (A) (A) (A) (A) (A)
 The electronic state is 1-A.
 Alpha  occ. eigenvalues --  -18.75208  -9.99034  -9.91810  -9.90803  -0.96610
 Alpha  occ. eigenvalues --   -0.72247  -0.60055  -0.52517  -0.42411  -0.41270
 Alpha  occ. eigenvalues --   -0.40352  -0.35444  -0.34926  -0.33660  -0.31192
 Alpha  occ. eigenvalues --   -0.21546
 Alpha virt. eigenvalues --   -0.07214   0.02097   0.04810   0.07108   0.07207
 Alpha virt. eigenvalues --    0.08188   0.11327   0.13140   0.15450   0.17049
 Alpha virt. eigenvalues --    0.19408   0.20638   0.21123   0.22345   0.29364
 Alpha virt. eigenvalues --    0.30039   0.31056   0.35251   0.36045   0.37145
 Alpha virt. eigenvalues --    0.38677   0.38754   0.40965   0.41771   0.42977
 Alpha virt. eigenvalues --    0.45657   0.46816   0.50732   0.53112   0.56677
 Alpha virt. eigenvalues --    0.57236   0.62209   0.70085   0.73251   0.79262
 Alpha virt. eigenvalues --    0.81315   0.82006   0.86008   0.92072   0.94210
 Alpha virt. eigenvalues --    0.94504   1.01173   1.02136   1.04355   1.09660
 Alpha virt. eigenvalues --    1.16339   1.23321   1.33606   1.34679   1.42182
 Alpha virt. eigenvalues --    1.42540   1.45602   1.46589   1.48276   1.48575
 Alpha virt. eigenvalues --    1.51040   1.52885   1.58150   1.65544   1.69490
 Alpha virt. eigenvalues --    1.70012   1.73414   1.76420   1.84298   1.85907
 Alpha virt. eigenvalues --    1.92031   1.94033   1.95695   2.06271   2.07038
 Alpha virt. eigenvalues --    2.09200   2.11879   2.21526   2.23555   2.23833
 Alpha virt. eigenvalues --    2.28393   2.33290   2.34409   2.43763   2.44559
 Alpha virt. eigenvalues --    2.46272   2.49598   2.51332   2.57807   2.61054
 Alpha virt. eigenvalues --    2.63159   2.66713   2.69299   2.74672   2.77861
 Alpha virt. eigenvalues --    2.82387   2.86431   2.90445   2.97166   2.97451
 Alpha virt. eigenvalues --    3.00623   3.01656   3.02673   3.09043   3.10560
 Alpha virt. eigenvalues --    3.12348   3.15724   3.17870   3.20925   3.27520
 Alpha virt. eigenvalues --    3.28075   3.35615   3.39174   3.42357   3.45109
 Alpha virt. eigenvalues --    3.49929   3.70985   3.71407   3.74358   3.76291
 Alpha virt. eigenvalues --    3.83171   3.86319   3.88909   4.02521   4.11221
 Alpha virt. eigenvalues --    4.14770   4.26658   4.29455   4.37456   4.42359
 Alpha virt. eigenvalues --    4.47543   4.63264   4.69432   5.06320   5.07204
 Alpha virt. eigenvalues --    5.42914   5.52882   5.94660   6.17551   6.19835
 Alpha virt. eigenvalues --    6.24818   6.31155   6.65139   6.76988   6.90546
 Alpha virt. eigenvalues --   22.11209  22.22925  22.53177  43.50626
          Condensed to atoms (all electrons):
               1          2          3          4          5          6
     1  C    4.954766   0.402152   0.402155   0.391721   0.178918  -0.021250
     2  H    0.402152   0.575162  -0.028163  -0.023774  -0.040867   0.007557
     3  H    0.402155  -0.028163   0.575159  -0.023775  -0.040869  -0.004363
     4  H    0.391721  -0.023774  -0.023775   0.565410  -0.019309  -0.005146
     5  C    0.178918  -0.040867  -0.040869  -0.019309   5.497910   0.344324
     6  H   -0.021250   0.007557  -0.004363  -0.005146   0.344324   0.578175
     7  H   -0.021254  -0.004363   0.007556  -0.005145   0.344338  -0.014044
     8  C    0.020982  -0.002442  -0.002441   0.003987   0.165472  -0.007900
     9  O    0.008414   0.000189   0.000189  -0.000360  -0.117266   0.003759
    10  H    0.045506   0.002841   0.002840  -0.000951  -0.238185   0.010103
               7          8          9         10
     1  C   -0.021254   0.020982   0.008414   0.045506
     2  H   -0.004363  -0.002442   0.000189   0.002841
     3  H    0.007556  -0.002441   0.000189   0.002840
     4  H   -0.005145   0.003987  -0.000360  -0.000951
     5  C    0.344338   0.165472  -0.117266  -0.238185
     6  H   -0.014044  -0.007900   0.003759   0.010103
     7  H    0.578164  -0.007903   0.003756   0.010101
     8  C   -0.007903   4.660655   0.667388   0.438036
     9  O    0.003756   0.667388   7.746680  -0.069135
    10  H    0.010101   0.438036  -0.069135   0.741159
 Mulliken charges:
               1
     1  C   -0.362109
     2  H    0.111709
     3  H    0.111711
     4  H    0.117340
     5  C   -0.074466
     6  H    0.108785
     7  H    0.108792
     8  C    0.064166
     9  O   -0.243613
    10  H    0.057685
 Sum of Mulliken charges =  -0.00000
 Mulliken charges with hydrogens summed into heavy atoms:
               1
     1  C   -0.021349
     5  C    0.143111
     8  C    0.121851
     9  O   -0.243613
 APT charges:
               1
     1  C    0.085264
     2  H   -0.020428
     3  H   -0.020426
     4  H   -0.014254
     5  C   -0.036777
     6  H   -0.010345
     7  H   -0.010339
     8  C    0.755861
     9  O   -0.636502
    10  H   -0.092055
 Sum of APT charges =  -0.00000
 APT charges with hydrogens summed into heavy atoms:
               1
     1  C    0.030156
     5  C   -0.057460
     8  C    0.663806
     9  O   -0.636502
 Electronic spatial extent (au):  <R**2>=            345.5995
 Charge=              0.0000 electrons
 Dipole moment (field-independent basis, Debye):
    X=              2.7397    Y=             -0.2346    Z=              0.0001  Tot=              2.7497
 Quadrupole moment (field-independent basis, Debye-Ang):
   XX=            -31.2360   YY=            -24.5517   ZZ=            -24.2568
   XY=              0.9388   XZ=             -0.0002   YZ=              0.0000
 Traceless Quadrupole moment (field-independent basis, Debye-Ang):
   XX=             -4.5545   YY=              2.1298   ZZ=              2.4247
   XY=              0.9388   XZ=             -0.0002   YZ=              0.0000
 Octapole moment (field-independent basis, Debye-Ang**2):
  XXX=              7.3761  YYY=              0.5507  ZZZ=             -0.0000  XYY=             -1.8020
  XXY=              0.4811  XXZ=              0.0002  XZZ=             -2.3457  YZZ=              0.4979
  YYZ=              0.0001  XYZ=             -0.0000
 Hexadecapole moment (field-independent basis, Debye-Ang**3):
 XXXX=           -363.5857 YYYY=            -72.0548 ZZZZ=            -37.4615 XXXY=              3.5299
 XXXZ=             -0.0005 YYYX=              1.4352 YYYZ=              0.0001 ZZZX=              0.0003
 ZZZY=              0.0002 XXYY=            -68.4687 XXZZ=            -62.0395 YYZZ=            -16.7036
 XXYZ=             -0.0001 YYXZ=             -0.0000 ZZXY=             -0.8457
 N-N= 1.157459563549D+02 E-N=-6.823631690009D+02  KE= 1.922103625691D+02
  Exact polarizability:      48.976      -1.348      40.749       0.000      -0.000      32.500
 Approx polarizability:      77.198      -4.774      63.880       0.001      -0.001      52.443
   1 Symmetry operations used in ECPInt.
 ECPInt:  NShTT=    2346 NPrTT=    6892 LenC2=    2331 LenP2D=    5891.
 LDataN:  DoStor=T MaxTD1= 8 Len=  415
 Calling FoFJK, ICntrl=    100527 FMM=F ISym2X=0 I1Cent= 4 IOpClX= 0 NMat=1 NMatS=1 NMatT=0.
 Full mass-weighted force constant matrix:
 Low frequencies ---  -85.8165  -21.1830   -0.0009   -0.0006   -0.0006    3.3645
 Low frequencies ---    6.5138  199.5138  292.7237
 ******    1 imaginary frequencies (negative Signs) ****** 
 Diagonal vibrational polarizability:
        3.0377787       3.4830230      40.0431202
 Harmonic frequencies (cm**-1), IR intensities (KM/Mole), Raman scattering
 activities (A**4/AMU), depolarization ratios for plane and unpolarized
 incident light, reduced masses (AMU), force constants (mDyne/A),
 and normal coordinates:
                      1                      2                      3
                      A                      A                      A
 Frequencies --    -85.6580               199.4889               292.7233
 Red. masses --      2.3606                 1.0990                 2.7718
 Frc consts  --      0.0102                 0.0258                 0.1399
 IR Inten    --     10.8012                 0.0116                 4.6062
  Atom  AN      X      Y      Z        X      Y      Z        X      Y      Z
     1   6    -0.00  -0.00  -0.12    -0.00  -0.00   0.02    -0.16  -0.12   0.00
     2   1     0.08  -0.11  -0.21    -0.30  -0.38  -0.23    -0.41  -0.17  -0.01
     3   1    -0.08   0.11  -0.21     0.30   0.38  -0.23    -0.41  -0.17   0.01
     4   1    -0.00  -0.00  -0.12     0.00  -0.00   0.60     0.08  -0.43  -0.00
     5   6     0.00   0.00   0.10     0.00   0.00  -0.08     0.04   0.23   0.00
     6   1    -0.13   0.12   0.21     0.01  -0.07  -0.13     0.12   0.21  -0.02
     7   1     0.13  -0.12   0.21    -0.01   0.07  -0.13     0.12   0.21   0.02
     8   6    -0.00   0.00   0.22     0.00   0.00   0.03     0.11   0.13  -0.00
     9   8     0.00  -0.00  -0.19    -0.00  -0.00   0.02     0.02  -0.16   0.00
    10   1    -0.00   0.00   0.78     0.00   0.00   0.17     0.35   0.17  -0.00
                      4                      5                      6
                      A                      A                      A
 Frequencies --    524.2077               634.4377               874.8141
 Red. masses --      5.1301                 1.2024                 1.1849
 Frc consts  --      0.8306                 0.2852                 0.5343
 IR Inten    --      6.4394                 2.9190                 0.8391
  Atom  AN      X      Y      Z        X      Y      Z        X      Y      Z
     1   6    -0.29   0.07   0.00     0.00  -0.00  -0.01     0.00   0.00   0.06
     2   1    -0.36   0.04  -0.01     0.18  -0.16  -0.14     0.33  -0.22  -0.14
     3   1    -0.36   0.04   0.01    -0.18   0.16  -0.14    -0.33   0.22  -0.14
     4   1    -0.21  -0.03   0.00     0.00   0.00  -0.09     0.00  -0.00  -0.21
     5   6    -0.19  -0.04   0.00     0.00   0.00   0.11     0.00   0.00   0.01
     6   1    -0.39  -0.09  -0.01    -0.03  -0.50  -0.28     0.40  -0.03  -0.05
     7   1    -0.39  -0.09   0.01     0.03   0.50  -0.28    -0.40   0.03  -0.05
     8   6     0.17  -0.20   0.00    -0.00   0.00   0.06    -0.00  -0.00  -0.10
     9   8     0.33   0.16  -0.00    -0.00  -0.00  -0.04    -0.00   0.00   0.03
    10   1     0.04  -0.23  -0.00    -0.00  -0.00  -0.39    -0.00   0.00   0.51
                      7                      8                      9
                      A                      A                      A
 Frequencies --    877.4692              1011.6360              1096.4585
 Red. masses --      1.8496                 2.6905                 2.2682
 Frc consts  --      0.8391                 1.6223                 1.6066
 IR Inten    --     36.0066                 6.4958                17.9006
  Atom  AN      X      Y      Z        X      Y      Z        X      Y      Z
     1   6    -0.12  -0.05   0.00    -0.20   0.13   0.00    -0.01  -0.16  -0.00
     2   1     0.29   0.08   0.04    -0.20   0.14   0.01     0.45   0.02   0.07
     3   1     0.29   0.08  -0.04    -0.20   0.14  -0.01     0.45   0.02  -0.07
     4   1    -0.57   0.50  -0.00    -0.20   0.13   0.00    -0.38   0.32   0.00
     5   6    -0.04  -0.13  -0.00     0.28  -0.03  -0.00    -0.05   0.23   0.00
     6   1     0.18  -0.08   0.02     0.54  -0.03  -0.02     0.23   0.20  -0.04
     7   1     0.18  -0.08  -0.02     0.54  -0.03   0.02     0.23   0.20   0.04
     8   6     0.08   0.18  -0.00    -0.07  -0.12  -0.00    -0.06  -0.17  -0.00
     9   8     0.02  -0.04   0.00    -0.03   0.00   0.00     0.03   0.03   0.00
    10   1     0.22   0.20   0.00    -0.24  -0.16   0.00    -0.05  -0.16   0.00
                     10                     11                     12
                      A                      A                      A
 Frequencies --   1120.4837              1255.3039              1296.7076
 Red. masses --      1.7581                 1.1903                 1.4568
 Frc consts  --      1.3005                 1.1051                 1.4432
 IR Inten    --      0.1790                 0.0001                 1.4335
  Atom  AN      X      Y      Z        X      Y      Z        X      Y      Z
     1   6    -0.00  -0.00   0.10     0.00   0.00   0.10    -0.04  -0.06   0.00
     2   1     0.27  -0.23  -0.11     0.19  -0.19  -0.06     0.09   0.09   0.09
     3   1    -0.27   0.23  -0.11    -0.19   0.19  -0.06     0.09   0.09  -0.09
     4   1    -0.00   0.00  -0.22     0.00  -0.00  -0.18    -0.21   0.15  -0.00
     5   6     0.00   0.00  -0.16    -0.00  -0.00  -0.04     0.18   0.05  -0.00
     6   1     0.18   0.32   0.07    -0.62   0.01   0.02    -0.61  -0.11  -0.04
     7   1    -0.18  -0.32   0.07     0.62  -0.01   0.02    -0.61  -0.11   0.04
     8   6    -0.00  -0.00   0.18     0.00   0.00  -0.07     0.01   0.02  -0.00
     9   8     0.00   0.00  -0.03     0.00   0.00   0.01    -0.02  -0.01   0.00
    10   1     0.00  -0.00  -0.58     0.00   0.00   0.15    -0.26  -0.03   0.00
                     13                     14                     15
                      A                      A                      A
 Frequencies --   1384.1386              1396.1357              1413.9157
 Red. masses --      1.2227                 1.1960                 1.0736
 Frc consts  --      1.3802                 1.3735                 1.2645
 IR Inten    --      3.9367                 1.1499                10.7056
  Atom  AN      X      Y      Z        X      Y      Z        X      Y      Z
     1   6    -0.11   0.05   0.00     0.06  -0.04  -0.00    -0.01  -0.00   0.00
     2   1     0.43  -0.07  -0.12    -0.30   0.11   0.13     0.03  -0.03  -0.02
     3   1     0.43  -0.07   0.12    -0.30   0.11  -0.13     0.03  -0.03   0.02
     4   1     0.26  -0.38   0.00    -0.20   0.27   0.00    -0.02  -0.00  -0.00
     5   6     0.04  -0.01   0.00     0.04  -0.01   0.00     0.03  -0.07  -0.00
     6   1    -0.10  -0.06  -0.03    -0.07  -0.01   0.01    -0.10   0.54   0.44
     7   1    -0.10  -0.06   0.03    -0.07  -0.01  -0.01    -0.10   0.54  -0.44
     8   6    -0.02  -0.03  -0.00    -0.03  -0.06  -0.00    -0.00  -0.01   0.00
     9   8    -0.03   0.03  -0.00    -0.04   0.05  -0.00    -0.00   0.00  -0.00
    10   1     0.57   0.07   0.00     0.78   0.07   0.00    -0.01  -0.01   0.00
                     16                     17                     18
                      A                      A                      A
 Frequencies --   1473.3861              1474.0263              1752.8138
 Red. masses --      1.0481                 1.0358                10.7383
 Frc consts  --      1.3406                 1.3259                19.4383
 IR Inten    --      8.4532                 6.7659               180.9191
  Atom  AN      X      Y      Z        X      Y      Z        X      Y      Z
     1   6    -0.02  -0.05  -0.00     0.00   0.00  -0.05    -0.02  -0.01  -0.00
     2   1     0.06   0.52   0.38     0.47   0.16   0.05     0.03  -0.02  -0.02
     3   1     0.06   0.52  -0.38    -0.47  -0.16   0.05     0.03  -0.02   0.02
     4   1     0.22  -0.31   0.00     0.00   0.00   0.70    -0.02  -0.01   0.00
     5   6    -0.02  -0.02  -0.00    -0.00   0.00  -0.02    -0.06   0.02  -0.00
     6   1     0.05   0.02   0.02    -0.05   0.02  -0.00     0.10   0.02  -0.01
     7   1     0.05   0.02  -0.02     0.05  -0.02  -0.00     0.10   0.02   0.01
     8   6     0.00   0.01  -0.00    -0.00   0.00   0.00     0.71  -0.20   0.00
     9   8     0.00  -0.00   0.00     0.00  -0.00  -0.00    -0.47   0.16  -0.00
    10   1    -0.04   0.00  -0.00    -0.00  -0.00  -0.01    -0.30  -0.29  -0.00
                     19                     20                     21
                      A                      A                      A
 Frequencies --   2760.6339              2981.6004              2988.5699
 Red. masses --      1.0809                 1.0597                 1.0364
 Frc consts  --      4.8535                 5.5506                 5.4538
 IR Inten    --    139.6928                 7.6559                32.9442
  Atom  AN      X      Y      Z        X      Y      Z        X      Y      Z
     1   6    -0.00   0.00  -0.00     0.00  -0.01   0.00     0.04  -0.03  -0.00
     2   1    -0.00  -0.01   0.01    -0.01   0.08  -0.12    -0.04   0.35  -0.50
     3   1    -0.00  -0.01  -0.01    -0.01   0.08   0.12    -0.04   0.35   0.50
     4   1    -0.00   0.01   0.00    -0.02  -0.02   0.00    -0.35  -0.31   0.00
     5   6     0.00   0.00  -0.00    -0.01   0.07  -0.00     0.00  -0.01   0.00
     6   1    -0.00  -0.01   0.01     0.05  -0.40   0.56    -0.01   0.08  -0.11
     7   1    -0.00  -0.01  -0.01     0.05  -0.40  -0.56    -0.01   0.08   0.11
     8   6     0.01  -0.08   0.00    -0.00   0.00  -0.00    -0.00  -0.00   0.00
     9   8     0.00  -0.00   0.00    -0.00  -0.00   0.00     0.00   0.00  -0.00
    10   1    -0.17   0.98  -0.00     0.00  -0.00  -0.00    -0.00   0.02  -0.00
                     22                     23                     24
                      A                      A                      A
 Frequencies --   3010.9836              3051.5381              3064.6770
 Red. masses --      1.0997                 1.1018                 1.1004
 Frc consts  --      5.8741                 6.0451                 6.0893
 IR Inten    --      1.9150                35.1019                24.4679
  Atom  AN      X      Y      Z        X      Y      Z        X      Y      Z
     1   6     0.00   0.00   0.03    -0.00  -0.00  -0.09    -0.05  -0.08   0.00
     2   1    -0.01   0.12  -0.16     0.05  -0.40   0.54    -0.04   0.17  -0.27
     3   1     0.01  -0.12  -0.16    -0.05   0.40   0.54    -0.04   0.17   0.27
     4   1    -0.00  -0.00   0.01     0.00   0.00  -0.02     0.68   0.56  -0.00
     5   6     0.00  -0.00  -0.09     0.00  -0.00  -0.03     0.00  -0.01   0.00
     6   1     0.05  -0.41   0.53     0.02  -0.12   0.16    -0.00   0.03  -0.04
     7   1    -0.05   0.41   0.53    -0.02   0.12   0.16    -0.00   0.03   0.04
     8   6    -0.00  -0.00  -0.00     0.00   0.00  -0.00     0.00  -0.00   0.00
     9   8     0.00  -0.00   0.00     0.00  -0.00   0.00     0.00   0.00   0.00
    10   1    -0.00   0.00  -0.00    -0.00   0.00  -0.00     0.00   0.01  -0.00

 -------------------
 - Thermochemistry -
 -------------------
 Temperature   298.150 Kelvin.  Pressure   1.00000 Atm.
 Atom     1 has atomic number  6 and mass  12.00000
 Atom     2 has atomic number  1 and mass   1.00783
 Atom     3 has atomic number  1 and mass   1.00783
 Atom     4 has atomic number  1 and mass   1.00783
 Atom     5 has atomic number  6 and mass  12.00000
 Atom     6 has atomic number  1 and mass   1.00783
 Atom     7 has atomic number  1 and mass   1.00783
 Atom     8 has atomic number  6 and mass  12.00000
 Atom     9 has atomic number  8 and mass  15.99491
 Atom    10 has atomic number  1 and mass   1.00783
 Molecular mass:    58.04186 amu.
 Principal axes and moments of inertia in atomic units:
                           1         2         3
     Eigenvalues --    55.52737 439.19235 472.43902
           X            1.00000  -0.00239  -0.00000
           Y            0.00239   1.00000  -0.00001
           Z            0.00000   0.00001   1.00000
 This molecule is an asymmetric top.
 Rotational symmetry number  1.
 Rotational temperatures (Kelvin)      1.55984     0.19721     0.18333
 Rotational constants (GHZ):          32.50183     4.10923     3.82005
    1 imaginary frequencies ignored.
 Zero-point vibrational energy     214945.9 (Joules/Mol)
                                   51.37331 (Kcal/Mol)
 Warning -- explicit consideration of   3 degrees of freedom as
           vibrations may cause significant error
 Vibrational temperatures:    287.02   421.16   754.22   912.81  1258.66
          (Kelvin)           1262.48  1455.52  1577.56  1612.13  1806.10
                             1865.67  1991.47  2008.73  2034.31  2119.87
                             2120.80  2521.91  3971.94  4289.86  4299.89
                             4332.13  4390.48  4409.39
 
 Zero-point correction=                           0.081869 (Hartree/Particle)
 Thermal correction to Energy=                    0.086302
 Thermal correction to Enthalpy=                  0.087247
 Thermal correction to Gibbs Free Energy=         0.055267
 Sum of electronic and zero-point Energies=           -193.022313
 Sum of electronic and thermal Energies=              -193.017879
 Sum of electronic and thermal Enthalpies=            -193.016935
 Sum of electronic and thermal Free Energies=         -193.048915
 
                     E (Thermal)             CV                S
                      KCal/Mol        Cal/Mol-Kelvin    Cal/Mol-Kelvin
 Total                   54.156             14.460             67.308
 Electronic               0.000              0.000              0.000
 Translational            0.889              2.981             38.096
 Rotational               0.889              2.981             23.959
 Vibrational             52.378              8.498              5.253
 Vibration     1          0.638              1.841              2.138
 Vibration     2          0.688              1.687              1.458
 Vibration     3          0.879              1.196              0.600
                       Q            Log10(Q)             Ln(Q)
 Total Bot       0.379465D-25        -25.420829        -58.533621
 Total V=0       0.172214D+13         12.236067         28.174586
 Vib (Bot)       0.568206D-37        -37.245494        -85.760919
 Vib (Bot)    1  0.999725D+00         -0.000119         -0.000275
 Vib (Bot)    2  0.652316D+00         -0.185542         -0.427226
 Vib (Bot)    3  0.306729D+00         -0.513245         -1.181789
 Vib (V=0)       0.257871D+01          0.411402          0.947288
 Vib (V=0)    1  0.161779D+01          0.208922          0.481060
 Vib (V=0)    2  0.132190D+01          0.121198          0.279068
 Vib (V=0)    3  0.108659D+01          0.036064          0.083041
 Electronic      0.100000D+01          0.000000          0.000000
 Translational   0.173806D+08          7.240066         16.670868
 Rotational      0.384237D+05          4.584599         10.556430
 ***** Axes restored to original set *****
 -------------------------------------------------------------------
 Center     Atomic                   Forces (Hartrees/Bohr)
 Number     Number              X              Y              Z
 -------------------------------------------------------------------
      1        6          -0.000163302    0.000073636    0.000001316
      2        1           0.000012887   -0.000080049    0.000117105
      3        1           0.000012035   -0.000079354   -0.000116638
      4        1           0.000115996    0.000091723    0.000000393
      5        6           0.000007886   -0.000198052   -0.000008590
      6        1          -0.000045219    0.000055782   -0.000095389
      7        1          -0.000045478    0.000054252    0.000097827
      8        6          -0.000176745    0.000142830    0.000008912
      9        8           0.000313849   -0.000102079   -0.000002485
     10        1          -0.000031909    0.000041312   -0.000002450
 -------------------------------------------------------------------
 Cartesian Forces:  Max     0.000313849 RMS     0.000104222
 FormGI is forming the generalized inverse of G from B-inverse, IUseBI=4.

 GradGradGradGradGradGradGradGradGradGradGradGradGradGradGradGradGradGrad
 Berny optimization.
 Internal  Forces:  Max     0.000329932 RMS     0.000075922
 Search for a saddle point.
 Step number   1 out of a maximum of    2
 All quantities printed in internal units (Hartrees-Bohrs-Radians)
 Swapping is turned off.
 Second derivative matrix not updated -- analytic derivatives used.
 ITU=  0
     Eigenvalues ---   -0.00091   0.00174   0.03040   0.03792   0.04352
     Eigenvalues ---    0.04360   0.04816   0.07230   0.10291   0.11678
     Eigenvalues ---    0.12549   0.13632   0.15709   0.17402   0.21026
     Eigenvalues ---    0.25723   0.27397   0.29615   0.31624   0.32331
     Eigenvalues ---    0.32470   0.32588   0.33427   0.81736
 Eigenvectors required to have negative eigenvalues:
                          D15       D13       D14       D12       D11
   1                   -0.42807  -0.42806  -0.41073  -0.41072  -0.38927
                          D10       D9        D6        D3        A8
   1                   -0.37193  -0.04017  -0.03940  -0.03940   0.01940
 Angle between quadratic step and forces=  39.56 degrees.
 Linear search not attempted -- option 19 set.
 Iteration  1 RMS(Cart)=  0.00030255 RMS(Int)=  0.00000006
 Iteration  2 RMS(Cart)=  0.00000005 RMS(Int)=  0.00000003
 Variable       Old X    -DE/DX   Delta X   Delta X   Delta X     New X
                                 (Linear)    (Quad)   (Total)
    R1        2.07102   0.00014   0.00000   0.00044   0.00044   2.07146
    R2        2.07102   0.00014   0.00000   0.00043   0.00043   2.07146
    R3        2.06738   0.00015   0.00000   0.00045   0.00045   2.06783
    R4        2.88792  -0.00002   0.00000  -0.00020  -0.00020   2.88772
    R5        2.07602   0.00011   0.00000   0.00036   0.00036   2.07638
    R6        2.07601   0.00011   0.00000   0.00037   0.00037   2.07638
    R7        2.87064  -0.00013   0.00000  -0.00044  -0.00044   2.87020
    R8        2.28472  -0.00033   0.00000  -0.00036  -0.00036   2.28435
    R9        2.11841  -0.00005   0.00000  -0.00011  -0.00011   2.11829
    A1        1.87953   0.00000   0.00000  -0.00001  -0.00001   1.87952
    A2        1.88059  -0.00000   0.00000  -0.00007  -0.00007   1.88052
    A3        1.94095  -0.00000   0.00000   0.00002   0.00002   1.94097
    A4        1.88059  -0.00000   0.00000  -0.00007  -0.00007   1.88052
    A5        1.94095  -0.00000   0.00000   0.00002   0.00002   1.94097
    A6        1.93850   0.00000   0.00000   0.00010   0.00010   1.93860
    A7        1.94542   0.00002   0.00000   0.00026   0.00026   1.94568
    A8        1.94545   0.00002   0.00000   0.00023   0.00023   1.94568
    A9        1.98608   0.00002   0.00000   0.00024   0.00024   1.98632
   A10        1.84129   0.00000   0.00000  -0.00000  -0.00000   1.84129
   A11        1.86872  -0.00003   0.00000  -0.00038  -0.00038   1.86834
   A12        1.86875  -0.00003   0.00000  -0.00041  -0.00041   1.86834
   A13        2.17142  -0.00003   0.00000  -0.00014  -0.00014   2.17128
   A14        2.00956   0.00004   0.00000   0.00025   0.00025   2.00980
   A15        2.10220  -0.00001   0.00000  -0.00010  -0.00010   2.10210
    D1        3.12044   0.00001   0.00000   0.00017   0.00017   3.12061
    D2        1.06811  -0.00002   0.00000  -0.00015  -0.00015   1.06797
    D3       -1.04735  -0.00000   0.00000   0.00004   0.00004  -1.04730
    D4       -1.06815   0.00001   0.00000   0.00019   0.00019  -1.06797
    D5       -3.12048  -0.00001   0.00000  -0.00013  -0.00013  -3.12061
    D6        1.04724   0.00000   0.00000   0.00006   0.00006   1.04730
    D7        1.02614   0.00001   0.00000   0.00018   0.00018   1.02632
    D8       -1.02619  -0.00001   0.00000  -0.00014  -0.00014  -1.02632
    D9        3.14154   0.00000   0.00000   0.00005   0.00005  -3.14159
   D10       -3.14152   0.00000   0.00000  -0.00008  -0.00008   3.14159
   D11        0.00014  -0.00000   0.00000  -0.00014  -0.00014  -0.00000
   D12       -0.98388   0.00002   0.00000   0.00014   0.00014  -0.98374
   D13        2.15778   0.00001   0.00000   0.00007   0.00007   2.15785
   D14        0.98397  -0.00001   0.00000  -0.00023  -0.00023   0.98374
   D15       -2.15756  -0.00001   0.00000  -0.00029  -0.00029  -2.15785
         Item               Value     Threshold  Converged?
 Maximum Force            0.000330     0.000450     YES
 RMS     Force            0.000076     0.000300     YES
 Maximum Displacement     0.000744     0.001800     YES
 RMS     Displacement     0.000303     0.001200     YES
 Predicted change in Energy=-2.691623D-07
 Optimization completed.
    -- Stationary point found.
                           ----------------------------
                           !   Optimized Parameters   !
                           ! (Angstroms and Degrees)  !
 --------------------------                            --------------------------
 ! Name  Definition              Value          Derivative Info.                !
 --------------------------------------------------------------------------------
 ! R1    R(1,2)                  1.0959         -DE/DX =    0.0001              !
 ! R2    R(1,3)                  1.0959         -DE/DX =    0.0001              !
 ! R3    R(1,4)                  1.094          -DE/DX =    0.0001              !
 ! R4    R(1,5)                  1.5282         -DE/DX =    0.0                 !
 ! R5    R(5,6)                  1.0986         -DE/DX =    0.0001              !
 ! R6    R(5,7)                  1.0986         -DE/DX =    0.0001              !
 ! R7    R(5,8)                  1.5191         -DE/DX =   -0.0001              !
 ! R8    R(8,9)                  1.209          -DE/DX =   -0.0003              !
 ! R9    R(8,10)                 1.121          -DE/DX =    0.0                 !
 ! A1    A(2,1,3)              107.6889         -DE/DX =    0.0                 !
 ! A2    A(2,1,4)              107.75           -DE/DX =    0.0                 !
 ! A3    A(2,1,5)              111.208          -DE/DX =    0.0                 !
 ! A4    A(3,1,4)              107.7497         -DE/DX =    0.0                 !
 ! A5    A(3,1,5)              111.2081         -DE/DX =    0.0                 !
 ! A6    A(4,1,5)              111.068          -DE/DX =    0.0                 !
 ! A7    A(1,5,6)              111.4643         -DE/DX =    0.0                 !
 ! A8    A(1,5,7)              111.466          -DE/DX =    0.0                 !
 ! A9    A(1,5,8)              113.794          -DE/DX =    0.0                 !
 ! A10   A(6,5,7)              105.4983         -DE/DX =    0.0                 !
 ! A11   A(6,5,8)              107.0696         -DE/DX =    0.0                 !
 ! A12   A(7,5,8)              107.0714         -DE/DX =    0.0                 !
 ! A13   A(5,8,9)              124.4134         -DE/DX =    0.0                 !
 ! A14   A(5,8,10)             115.1392         -DE/DX =    0.0                 !
 ! A15   A(9,8,10)             120.4473         -DE/DX =    0.0                 !
 ! D1    D(2,1,5,6)            178.7881         -DE/DX =    0.0                 !
 ! D2    D(2,1,5,7)             61.1984         -DE/DX =    0.0                 !
 ! D3    D(2,1,5,8)            -60.0086         -DE/DX =    0.0                 !
 ! D4    D(3,1,5,6)            -61.2006         -DE/DX =    0.0                 !
 ! D5    D(3,1,5,7)           -178.7903         -DE/DX =    0.0                 !
 ! D6    D(3,1,5,8)             60.0027         -DE/DX =    0.0                 !
 ! D7    D(4,1,5,6)             58.7936         -DE/DX =    0.0                 !
 ! D8    D(4,1,5,7)            -58.7961         -DE/DX =    0.0                 !
 ! D9    D(4,1,5,8)           -180.0031         -DE/DX =    0.0                 !
 ! D10   D(1,5,8,9)            180.0044         -DE/DX =    0.0                 !
 ! D11   D(1,5,8,10)             0.008          -DE/DX =    0.0                 !
 ! D12   D(6,5,8,9)            -56.3722         -DE/DX =    0.0                 !
 ! D13   D(6,5,8,10)           123.6314         -DE/DX =    0.0                 !
 ! D14   D(7,5,8,9)             56.3774         -DE/DX =    0.0                 !
 ! D15   D(7,5,8,10)          -123.6191         -DE/DX =    0.0                 !
 --------------------------------------------------------------------------------
 GradGradGradGradGradGradGradGradGradGradGradGradGradGradGradGradGradGrad


 ----------------------------------------------------------------------

 Electric dipole moment (input orientation):
 (Debye = 10**-18 statcoulomb cm , SI units = C m)
                  (au)            (Debye)         (10**-30 SI)
   Tot        0.108183D+01      0.274974D+01      0.917214D+01
   x          0.107788D+01      0.273971D+01      0.913869D+01
   y         -0.923175D-01     -0.234648D+00     -0.782700D+00
   z          0.380832D-04      0.967979D-04      0.322883D-03

 Dipole polarizability, Alpha (input orientation).
 (esu units = cm**3 , SI units = C**2 m**2 J**-1)
 Alpha(0;0):
               (au)            (10**-24 esu)      (10**-40 SI)
   iso        0.407418D+02      0.603731D+01      0.671741D+01
   aniso      0.144585D+02      0.214253D+01      0.238389D+01
   xx         0.489764D+02      0.725756D+01      0.807512D+01
   yx        -0.134763D+01     -0.199698D+00     -0.222194D+00
   yy         0.407487D+02      0.603833D+01      0.671855D+01
   zx         0.286876D-03      0.425106D-04      0.472994D-04
   zy        -0.451924D-03     -0.669682D-04     -0.745121D-04
   zz         0.325002D+02      0.481603D+01      0.535855D+01

 ----------------------------------------------------------------------

 Dipole orientation:
     6         -0.00906740         -0.10772966          3.38192931
     1         -1.77675230         -1.15143285          3.65597816
     1          1.55540694         -1.43686225          3.65572540
     1          0.11376955          1.32490770          4.86736964
     6          0.09436485          1.10211685          0.76169338
     1          1.84557700          2.18425672          0.49321590
     1         -1.44735570          2.46627747          0.49338420
     6         -0.06749863         -0.78717401         -1.39351599
     8         -0.01952259         -0.22705219         -3.60798884
     1         -0.24125320         -2.81400035         -0.80239397

 Electric dipole moment (dipole orientation):
 (Debye = 10**-18 statcoulomb cm , SI units = C m)
                  (au)            (Debye)         (10**-30 SI)
   Tot        0.108183D+01      0.274974D+01      0.917214D+01
   x          0.000000D+00      0.000000D+00      0.000000D+00
   y          0.000000D+00      0.000000D+00      0.000000D+00
   z          0.108183D+01      0.274974D+01      0.917214D+01

 Dipole polarizability, Alpha (dipole orientation).
 (esu units = cm**3 , SI units = C**2 m**2 J**-1)
 Alpha(0;0):
               (au)            (10**-24 esu)      (10**-40 SI)
   iso        0.407418D+02      0.603731D+01      0.671741D+01
   aniso      0.144585D+02      0.214253D+01      0.238389D+01
   xx         0.325591D+02      0.482476D+01      0.536827D+01
   yx         0.687324D+00      0.101851D+00      0.113324D+00
   yy         0.405205D+02      0.600452D+01      0.668093D+01
   zx        -0.533682D-01     -0.790835D-02     -0.879922D-02
   zy        -0.626183D+00     -0.927908D-01     -0.103244D+00
   zz         0.491457D+02      0.728264D+01      0.810303D+01

 ----------------------------------------------------------------------
 Unable to Open any file for archive entry.
 1\1\GINC-RTX\Freq\RB97D3\def2TZVP/Auto\C3H6O1\MONTY\21-Mar-2026\0\\#N 
 Geom=AllCheck Guess=TCheck SCRF=Check GenChk RB97D3/def2TZVP/Auto Freq
 \\propionaldehyde s-cis\\0,1\C,1.77823,-0.209719,-0.000021\H,1.86892,-
 0.849906,0.88486\H,1.868847,-0.849921,-0.8849\H,2.626355,0.481328,-0.0
 00065\C,0.451551,0.548818,0.000029\H,0.365464,1.208204,-0.874431\H,0.3
 65491,1.208197,0.874493\C,-0.770404,-0.353631,0.000016\O,-1.912592,0.0
 42772,-0.000027\H,-0.550598,-1.452882,0.000113\\Version=ES64L-G16RevC.
 01\State=1-A\HF=-193.1041816\RMSD=1.725e-09\RMSF=1.042e-04\ZeroPoint=0
 .0818686\Thermal=0.0863024\ETot=-193.0178793\HTot=-193.0169351\GTot=-1
 93.0489151\Dipole=1.0778845,-0.0923175,0.0000381\DipoleDeriv=0.0545213
 ,0.0068594,0.0000032,-0.0113931,0.0845043,-0.0000053,0.0000057,-0.0000
 049,0.1167673,0.0327697,0.0110248,0.0121453,0.0577808,-0.0168924,0.094
 9303,-0.0251416,0.103908,-0.0771599,0.0327722,0.0110163,-0.0121549,0.0
 577732,-0.0168932,-0.0949334,0.0251309,-0.1039074,-0.077157,-0.0994034
 ,-0.0721484,0.0000053,-0.1059762,-0.0182063,0.0000054,0.0000074,0.0000
 044,0.0748464,-0.0819828,-0.1353407,-0.0000079,-0.3896491,-0.1579486,0
 .000007,-0.000018,-0.0000015,0.129601,-0.0221525,0.0153616,-0.0249584,
 0.0409736,0.0145508,0.0700578,-0.0207327,0.0975374,-0.0234322,-0.02215
 34,0.0153547,0.0249569,0.0409687,0.0145631,-0.0700577,0.0207354,-0.097
 5314,-0.0234265,1.243257,-0.0119026,0.0000501,0.1275115,0.887122,-0.00
 00457,0.0000579,-0.0000512,0.1372034,-1.1104779,0.0843313,-0.0000314,0
 .1360865,-0.4742062,0.0000165,-0.0000315,0.0000114,-0.3248209,-0.02715
 02,0.0754436,-0.0000084,0.0459242,-0.3165936,0.0000251,-0.0000134,0.00
 00351,0.0675783\Polar=48.9764176,-1.3476288,40.7486876,0.0002869,-0.00
 04519,32.500174\Quadrupole=-3.3861622,1.5834567,1.8027056,0.6979978,-0
 .000121,0.0000297\PG=C01 [X(C3H6O1)]\NImag=1\\0.47723981,0.04806201,0.
 52149602,0.00000327,-0.00000359,0.54363062,-0.04609051,0.00946960,-0.0
 1335583,0.05088513,0.00997287,-0.12925763,0.11821853,-0.01441727,0.139
 60087,-0.01445516,0.11867272,-0.21291421,0.01580056,-0.13138305,0.2292
 9970,-0.04608820,0.00945985,0.01334139,-0.00099489,-0.00149972,-0.0012
 4521,0.05088288,0.00996338,-0.12926110,-0.11821989,-0.00149830,0.01145
 423,0.01530200,-0.01440616,0.13960445,0.01444088,-0.11867394,-0.212911
 56,0.00124353,-0.01530243,-0.02021340,-0.01578502,0.13138471,0.2292969
 1,-0.19600220,-0.12771297,0.00000791,0.00203526,0.00196556,0.00044475,
 0.00203333,0.00196397,-0.00044493,0.21548980,-0.12914237,-0.15090078,0
 .00000664,-0.01310990,-0.01171591,-0.00108313,-0.01311022,-0.01171625,
 0.00108435,0.13772787,0.16282916,0.00000803,0.00000662,-0.04434702,0.0
 2072293,0.01657839,0.00023839,-0.02072283,-0.01657845,0.00024042,-0.00
 000869,-0.00000713,0.04400329,-0.15042879,0.04675672,0.00000269,-0.003
 44029,0.00209299,-0.00075808,-0.00343838,0.00209176,0.00075844,-0.0216
 1556,0.01560386,0.00000050,0.42997001,0.04794595,-0.10738880,-0.000001
 68,0.01709980,-0.00961630,-0.00160399,0.01710010,-0.00961602,0.0016030
 3,-0.01819639,0.01181290,0.00000070,-0.03021596,0.49019015,0.00000275,
 -0.00000151,-0.07611319,-0.02453372,0.01273477,0.00120287,0.02453378,-
 0.01273441,0.00120105,0.00000091,-0.00000064,-0.00079914,0.00000154,0.
 00000434,0.51649163,-0.00285012,0.01766413,-0.02408842,-0.00517733,0.0
 0301875,0.00053222,0.00137072,-0.00042939,0.00055906,0.00092445,-0.000
 76940,-0.00024236,-0.04450777,0.00844080,-0.00961559,0.05100408,0.0012
 6308,-0.00906077,0.01144814,0.00253839,-0.00070169,-0.00030528,-0.0004
 6784,0.00000354,-0.00004902,-0.00016436,0.00068739,-0.00036359,0.01110
 333,-0.12693651,0.12356257,-0.01217059,0.14118874,-0.00023795,-0.00137
 399,0.00145497,0.00035278,-0.00059234,0.00150585,-0.00030926,-0.000065
 05,0.00076692,-0.00054024,0.00004109,0.00007532,-0.01312148,0.12011192
 ,-0.20104965,0.01490954,-0.13171104,0.21914384,-0.00284814,0.01766321,
 0.02408862,0.00137083,-0.00042941,-0.00055912,-0.00517738,0.00301860,-
 0.00053180,0.00092442,-0.00076947,0.00024229,-0.04450600,0.00843678,0.
 00961102,0.00008396,-0.00066595,-0.00076747,0.05100104,0.00126234,-0.0
 0906033,-0.01144798,-0.00046786,0.00000364,0.00004903,0.00253844,-0.00
 070162,0.00030508,-0.00016432,0.00068727,0.00036358,0.01110002,-0.1269
 3692,-0.12356787,-0.00066555,0.01095601,0.01515106,-0.01216718,0.14118
 647,0.00023792,0.00137343,0.00145391,0.00030927,0.00006509,0.00076699,
 -0.00035244,0.00059221,0.00150582,0.00054019,-0.00004112,0.00007520,0.
 01311780,-0.12011606,-0.20105581,0.00076690,-0.01515055,-0.02151428,-0
 .01490518,0.13171479,0.21915098,-0.03259076,-0.01232142,0.00000065,0.0
 0152975,-0.00167003,0.00074931,0.00152963,-0.00167019,-0.00074949,-0.0
 0185594,0.00180783,0.00000012,-0.11055912,-0.03054174,0.00000003,0.000
 96024,-0.00191018,-0.00098489,0.00095956,-0.00191012,0.00098432,0.8417
 8495,0.01343315,0.01645536,0.00000004,0.00192356,-0.00022471,0.0015830
 0,0.00192323,-0.00022460,-0.00158314,0.00635044,-0.00361581,-0.0000001
 4,-0.04988940,-0.13076907,0.00000019,-0.01431177,-0.01630396,-0.000538
 94,-0.01430990,-0.01630177,0.00054013,-0.15482985,0.56135009,0.0000005
 1,0.00000096,-0.00284391,-0.00092311,-0.00042956,0.00032542,0.00092295
 ,0.00042948,0.00032561,0.00000026,-0.00000013,0.00104945,0.00000135,0.
 00000099,-0.07530998,0.02263991,0.01661229,-0.00096928,-0.02264014,-0.
 01661141,-0.00096856,0.00002413,-0.00002741,0.19660818,-0.00260156,-0.
 00828883,-0.00000031,0.00009149,0.00076524,-0.00014682,0.00009162,0.00
 076535,0.00014697,-0.00235969,0.00167188,0.00000006,-0.05410368,-0.001
 20415,-0.00000187,-0.00033198,0.00256133,0.00059589,-0.00033248,0.0025
 6104,-0.00059582,-0.64829156,0.19622184,-0.00002396,0.72838490,-0.0039
 2732,-0.00305130,-0.00000014,-0.00072215,0.00002060,-0.00059625,-0.000
 72193,0.00002052,0.00059628,-0.00147502,0.00107676,0.00000002,-0.01366
 971,0.02516533,-0.00000042,0.00102100,0.00207051,-0.00059754,0.0010207
 4,0.00206994,0.00059710,0.19935226,-0.17418890,0.00001103,-0.22679028,
 0.15748218,-0.00000005,-0.00000070,0.00241926,0.00036665,-0.00007868,-
 0.00007310,-0.00036652,0.00007870,-0.00007315,-0.00000015,0.00000011,-
 0.00019510,-0.00000210,0.00000016,0.01352162,-0.00300183,-0.00178504,0
 .00146801,0.00300212,0.00178487,0.00146791,-0.00002277,0.00001036,-0.0
 5951131,0.00002857,-0.00001277,0.02075547,0.00226046,-0.00075228,0.000
 00004,-0.00020944,0.00020101,-0.00036244,-0.00020935,0.00020099,0.0003
 6238,0.00042613,0.00008992,-0.00000005,0.00262958,-0.01886517,0.000001
 16,-0.00147625,-0.00208721,0.00010307,-0.00147582,-0.00208680,-0.00010
 296,-0.05346675,0.01348869,-0.00000189,-0.02054707,0.04591240,-0.00000
 392,0.07206851,0.00116692,0.00002933,-0.00000006,-0.00081586,0.0004369
 0,-0.00063505,-0.00081575,0.00043686,0.00063509,-0.00029476,0.00085527
 ,-0.00000001,0.00502639,-0.01590475,0.00000298,-0.00179798,-0.00190324
 ,-0.00042517,-0.00179742,-0.00190268,0.00042499,0.00369343,-0.23617660
 ,0.00001376,0.03173658,-0.01066563,0.00000300,-0.03610154,0.26479455,-
 0.00000019,0.,0.00017114,0.00001694,0.00018928,-0.00013853,-0.00001685
 ,-0.00018931,-0.00013862,0.,-0.00000005,-0.00034083,-0.00000064,0.0000
 0059,0.02191061,-0.00245941,-0.00225846,-0.00088170,0.00245968,0.00225
 886,-0.00088215,-0.00000142,0.00001592,-0.05870563,-0.00000271,0.00000
 270,0.02022039,0.00000460,-0.00001952,0.01878532\\0.00016330,-0.000073
 64,-0.00000132,-0.00001289,0.00008005,-0.00011710,-0.00001204,0.000079
 35,0.00011664,-0.00011600,-0.00009172,-0.00000039,-0.00000789,0.000198
 05,0.00000859,0.00004522,-0.00005578,0.00009539,0.00004548,-0.00005425
 ,-0.00009783,0.00017674,-0.00014283,-0.00000891,-0.00031385,0.00010208
 ,0.00000249,0.00003191,-0.00004131,0.00000245\\\@
 The archive entry for this job was punched.


 ALMOST ALL THE CHEMICAL PROCESSES WHICH OCCUR IN NATURE,
 WHETHER IN ANIMAL OR VEGETABLE ORGANISMS,
 OR IN THE NON-LIVING SURFACE OF THE EARTH ... 
 TAKE PLACE BETWEEN SUBSTANCES IN SOLUTION

                                    -- W. OSTWALD, 1890
 Job cpu time:       0 days  0 hours  1 minutes 29.8 seconds.
 Elapsed time:       0 days  0 hours  0 minutes 22.4 seconds.
 File lengths (MBytes):  RWF=     32 Int=      0 D2E=      0 Chk=      7 Scr=      1
 Normal termination of Gaussian 16 at Sat Mar 21 20:15:17 2026.
