 Entering Gaussian System, Link 0=g16
 Input=propyleneoxide.com
 Output=propyleneoxide.log
 Initial command:
 /usr/local//g16/l1.exe "/home/monty/scratch/Gau-144328.inp" -scrdir="/home/monty/scratch/"
 Entering Link 1 = /usr/local//g16/l1.exe PID=    144330.
  
 Copyright (c) 1988-2019, Gaussian, Inc.  All Rights Reserved.
  
 This is part of the Gaussian(R) 16 program.  It is based on
 the Gaussian(R) 09 system (copyright 2009, Gaussian, Inc.),
 the Gaussian(R) 03 system (copyright 2003, Gaussian, Inc.),
 the Gaussian(R) 98 system (copyright 1998, Gaussian, Inc.),
 the Gaussian(R) 94 system (copyright 1995, Gaussian, Inc.),
 the Gaussian 92(TM) system (copyright 1992, Gaussian, Inc.),
 the Gaussian 90(TM) system (copyright 1990, Gaussian, Inc.),
 the Gaussian 88(TM) system (copyright 1988, Gaussian, Inc.),
 the Gaussian 86(TM) system (copyright 1986, Carnegie Mellon
 University), and the Gaussian 82(TM) system (copyright 1983,
 Carnegie Mellon University). Gaussian is a federally registered
 trademark of Gaussian, Inc.
  
 This software contains proprietary and confidential information,
 including trade secrets, belonging to Gaussian, Inc.
  
 This software is provided under written license and may be
 used, copied, transmitted, or stored only in accord with that
 written license.
  
 The following legend is applicable only to US Government
 contracts under FAR:
  
                    RESTRICTED RIGHTS LEGEND
  
 Use, reproduction and disclosure by the US Government is
 subject to restrictions as set forth in subparagraphs (a)
 and (c) of the Commercial Computer Software - Restricted
 Rights clause in FAR 52.227-19.
  
 Gaussian, Inc.
 340 Quinnipiac St., Bldg. 40, Wallingford CT 06492
  
  
 ---------------------------------------------------------------
 Warning -- This program may not be used in any manner that
 competes with the business of Gaussian, Inc. or will provide
 assistance to any competitor of Gaussian, Inc.  The licensee
 of this program is prohibited from giving any competitor of
 Gaussian, Inc. access to this program.  By using this program,
 the user acknowledges that Gaussian, Inc. is engaged in the
 business of creating and licensing software in the field of
 computational chemistry and represents and warrants to the
 licensee that it is not a competitor of Gaussian, Inc. and that
 it will not use this program in any manner prohibited above.
 ---------------------------------------------------------------
  

 Cite this work as:
 Gaussian 16, Revision C.01,
 M. J. Frisch, G. W. Trucks, H. B. Schlegel, G. E. Scuseria, 
 M. A. Robb, J. R. Cheeseman, G. Scalmani, V. Barone, 
 G. A. Petersson, H. Nakatsuji, X. Li, M. Caricato, A. V. Marenich, 
 J. Bloino, B. G. Janesko, R. Gomperts, B. Mennucci, H. P. Hratchian, 
 J. V. Ortiz, A. F. Izmaylov, J. L. Sonnenberg, D. Williams-Young, 
 F. Ding, F. Lipparini, F. Egidi, J. Goings, B. Peng, A. Petrone, 
 T. Henderson, D. Ranasinghe, V. G. Zakrzewski, J. Gao, N. Rega, 
 G. Zheng, W. Liang, M. Hada, M. Ehara, K. Toyota, R. Fukuda, 
 J. Hasegawa, M. Ishida, T. Nakajima, Y. Honda, O. Kitao, H. Nakai, 
 T. Vreven, K. Throssell, J. A. Montgomery, Jr., J. E. Peralta, 
 F. Ogliaro, M. J. Bearpark, J. J. Heyd, E. N. Brothers, K. N. Kudin, 
 V. N. Staroverov, T. A. Keith, R. Kobayashi, J. Normand, 
 K. Raghavachari, A. P. Rendell, J. C. Burant, S. S. Iyengar, 
 J. Tomasi, M. Cossi, J. M. Millam, M. Klene, C. Adamo, R. Cammi, 
 J. W. Ochterski, R. L. Martin, K. Morokuma, O. Farkas, 
 J. B. Foresman, and D. J. Fox, Gaussian, Inc., Wallingford CT, 2019.
 
 ******************************************
 Gaussian 16:  ES64L-G16RevC.01  3-Jul-2019
                21-Mar-2026 
 ******************************************
 %mem=512MW
 %nprocshared=4
 Will use up to    4 processors via shared memory.
 --------------------------------------------------------
 # opt freq b97d3/def2tzvp/auto EmpiricalDispersion=GD3BJ
 --------------------------------------------------------
 1/18=20,19=15,26=3,38=1/1,3;
 2/9=110,12=2,17=6,18=5,40=1/2;
 3/5=44,7=101,11=2,25=1,30=1,71=1,74=-59,82=28,124=41/1,2,3;
 4//1;
 5/5=2,38=5/2;
 6/7=2,8=2,9=2,10=2,28=1/1;
 7//1,2,3,16;
 1/18=20,19=15,26=3/3(2);
 2/9=110/2;
 99//99;
 2/9=110/2;
 3/5=44,7=101,11=2,25=1,30=1,71=1,74=-59,82=28,124=41/1,2,3;
 4/5=5,16=3,69=1/1;
 5/5=2,38=5/2;
 7//1,2,3,16;
 1/18=20,19=15,26=3/3(-5);
 2/9=110/2;
 6/7=2,8=2,9=2,10=2,19=2,28=1/1;
 99/9=1/99;
 ---------------
 propylene oxide
 ---------------
 Symbolic Z-matrix:
 Charge =  0 Multiplicity = 1
 C                    -0.99762  -0.27316   0. 
 C                     0.50349  -0.27316   0. 
 H                    -1.53422  -0.58303  -0.91386 
 H                    -1.53422  -0.58303   0.91386 
 H                     1.04005  -0.58293   0.91389 
 O                    -0.24709   1.02682   0. 
 C                     1.25188  -0.70522  -1.27469 
 H                     2.26432  -0.36225  -1.22742 
 H                     1.24002  -1.77244  -1.35081 
 H                     0.77129  -0.28117  -2.13149 
 

 GradGradGradGradGradGradGradGradGradGradGradGradGradGradGradGradGradGrad
 Berny optimization.
 Initialization pass.
                           ----------------------------
                           !    Initial Parameters    !
                           ! (Angstroms and Degrees)  !
 --------------------------                            --------------------------
 ! Name  Definition              Value          Derivative Info.                !
 --------------------------------------------------------------------------------
 ! R1    R(1,2)                  1.5011         estimate D2E/DX2                !
 ! R2    R(1,3)                  1.1041         estimate D2E/DX2                !
 ! R3    R(1,4)                  1.1041         estimate D2E/DX2                !
 ! R4    R(1,6)                  1.5011         estimate D2E/DX2                !
 ! R5    R(2,5)                  1.1041         estimate D2E/DX2                !
 ! R6    R(2,6)                  1.5011         estimate D2E/DX2                !
 ! R7    R(2,7)                  1.54           estimate D2E/DX2                !
 ! R8    R(7,8)                  1.07           estimate D2E/DX2                !
 ! R9    R(7,9)                  1.07           estimate D2E/DX2                !
 ! R10   R(7,10)                 1.07           estimate D2E/DX2                !
 ! A1    A(2,1,3)              119.0775         estimate D2E/DX2                !
 ! A2    A(2,1,4)              119.0775         estimate D2E/DX2                !
 ! A3    A(3,1,4)              111.7214         estimate D2E/DX2                !
 ! A4    A(3,1,6)              119.081          estimate D2E/DX2                !
 ! A5    A(4,1,6)              119.081          estimate D2E/DX2                !
 ! A6    A(1,2,5)              119.076          estimate D2E/DX2                !
 ! A7    A(1,2,7)              119.076          estimate D2E/DX2                !
 ! A8    A(5,2,6)              119.0756         estimate D2E/DX2                !
 ! A9    A(5,2,7)              111.7304         estimate D2E/DX2                !
 ! A10   A(6,2,7)              119.0756         estimate D2E/DX2                !
 ! A11   A(2,7,8)              109.4712         estimate D2E/DX2                !
 ! A12   A(2,7,9)              109.4712         estimate D2E/DX2                !
 ! A13   A(2,7,10)             109.4712         estimate D2E/DX2                !
 ! A14   A(8,7,9)              109.4713         estimate D2E/DX2                !
 ! A15   A(8,7,10)             109.4712         estimate D2E/DX2                !
 ! A16   A(9,7,10)             109.4712         estimate D2E/DX2                !
 ! D1    D(3,1,2,5)           -142.5447         estimate D2E/DX2                !
 ! D2    D(3,1,2,7)              0.0066         estimate D2E/DX2                !
 ! D3    D(4,1,2,5)             -0.0066         estimate D2E/DX2                !
 ! D4    D(4,1,2,7)            142.5447         estimate D2E/DX2                !
 ! D5    D(1,2,7,8)            162.125          estimate D2E/DX2                !
 ! D6    D(1,2,7,9)            -77.875          estimate D2E/DX2                !
 ! D7    D(1,2,7,10)            42.125          estimate D2E/DX2                !
 ! D8    D(5,2,7,8)            -52.7701         estimate D2E/DX2                !
 ! D9    D(5,2,7,9)             67.23           estimate D2E/DX2                !
 ! D10   D(5,2,7,10)          -172.77           estimate D2E/DX2                !
 ! D11   D(6,2,7,8)             92.3336         estimate D2E/DX2                !
 ! D12   D(6,2,7,9)           -147.6664         estimate D2E/DX2                !
 ! D13   D(6,2,7,10)           -27.6664         estimate D2E/DX2                !
 --------------------------------------------------------------------------------
 Trust Radius=3.00D-01 FncErr=1.00D-07 GrdErr=1.00D-06 EigMax=2.50D+02 EigMin=1.00D-04
 Number of steps in this run=     49 maximum allowed number of steps=    100.
 GradGradGradGradGradGradGradGradGradGradGradGradGradGradGradGradGradGrad

                          Input orientation:                          
 ---------------------------------------------------------------------
 Center     Atomic      Atomic             Coordinates (Angstroms)
 Number     Number       Type             X           Y           Z
 ---------------------------------------------------------------------
      1          6           0       -0.997625   -0.273159    0.000000
      2          6           0        0.503490   -0.273159    0.000000
      3          1           0       -1.534221   -0.583034   -0.913858
      4          1           0       -1.534221   -0.583034    0.913858
      5          1           0        1.040051   -0.582926    0.913888
      6          8           0       -0.247095    1.026816    0.000000
      7          6           0        1.251884   -0.705221   -1.274688
      8          1           0        2.264325   -0.362251   -1.227419
      9          1           0        1.240022   -1.772444   -1.350815
     10          1           0        0.771293   -0.281168   -2.131490
 ---------------------------------------------------------------------
                    Distance matrix (angstroms):
                    1          2          3          4          5
     1  C    0.000000
     2  C    1.501115   0.000000
     3  H    1.104126   2.254645   0.000000
     4  H    1.104126   2.254645   1.827716   0.000000
     5  H    2.254611   1.104104   3.157140   2.574272   0.000000
     6  O    1.501076   1.501104   2.254650   2.254650   2.254597
     7  C    2.621411   1.540000   2.812029   3.545002   2.202202
     8  H    3.486375   2.148263   3.817855   4.366092   2.476436
     9  H    3.013240   2.148263   3.049926   3.773573   2.565895
    10  H    2.769907   2.148263   2.624718   3.831535   3.072071
                    6          7          8          9         10
     6  O    0.000000
     7  C    2.621396   0.000000
     8  H    3.121425   1.070000   0.000000
     9  H    3.445587   1.070000   1.747303   0.000000
    10  H    2.700219   1.070000   1.747303   1.747303   0.000000
 Stoichiometry    C3H6O
 Framework group  C1[X(C3H6O)]
 Deg. of freedom    24
 Full point group                 C1      NOp   1
 Largest Abelian subgroup         C1      NOp   1
 Largest concise Abelian subgroup C1      NOp   1
                         Standard orientation:                         
 ---------------------------------------------------------------------
 Center     Atomic      Atomic             Coordinates (Angstroms)
 Number     Number       Type             X           Y           Z
 ---------------------------------------------------------------------
      1          6           0        1.009728    0.669916   -0.071115
      2          6           0       -0.160935   -0.077949    0.497735
      3          1           0        0.856637    1.315101   -0.953948
      4          1           0        1.763069    1.091380    0.617317
      5          1           0       -0.244454   -0.191235    1.592831
      6          8           0        0.920900   -0.819868   -0.231992
      7          6           0       -1.541757    0.076096   -0.166497
      8          1           0       -2.176893   -0.728492    0.140326
      9          1           0       -1.977850    1.007401    0.129127
     10          1           0       -1.429928    0.056409   -1.230455
 ---------------------------------------------------------------------
 Rotational constants (GHZ):          16.7270296           6.4073032           5.6173027
 Standard basis: def2TZVP (5D, 7F)
 There are   180 symmetry adapted cartesian basis functions of A   symmetry.
 There are   160 symmetry adapted basis functions of A   symmetry.
   160 basis functions,   252 primitive gaussians,   180 cartesian basis functions
    16 alpha electrons       16 beta electrons
       nuclear repulsion energy       121.4880456050 Hartrees.
 NAtoms=   10 NActive=   10 NUniq=   10 SFac= 1.00D+00 NAtFMM=   60 NAOKFM=F Big=F
 Integral buffers will be    131072 words long.
 Raffenetti 2 integral format.
 Two-electron integral symmetry is turned on.
 Nuclear repulsion after empirical dispersion term =      121.4713132848 Hartrees.
 Standard density basis: Auto (5D, 7F)
   734 Density fitting functions
 There are   734 symmetry adapted density basis functions of A   symmetry.
 One-electron integrals computed using PRISM.
   1 Symmetry operations used in ECPInt.
 ECPInt:  NShTT=    2346 NPrTT=    6892 LenC2=    2339 LenP2D=    5986.
 LDataN:  DoStor=T MaxTD1= 6 Len=  172
 NBasis=   160 RedAO= T EigKep=  3.45D-04  NBF=   160
 NBsUse=   160 1.00D-06 EigRej= -1.00D+00 NBFU=   160
 NBasis=      160 NBas6D=      180 NTT=       12880   NTT6D=    16290
 NDBShl=      110 NDBF=        734 NDBF6D=      928  NNucDB=        0
 IDenFi=        2 ISolve=        0 FullAP=F BlkAPC=T NucTyp=        0
 TolInv= 1.00D-06 TolIt=  1.00D-10 IR12=0.
 FoFCou: FMM=F IPFlag=           0 FMFlag=           0 FMFlg1=           0
         NFxFlg=           0 DoJE=F BraDBF=T KetDBF=T FulRan=T
         wScrn=  0.000000 ICntrl=       600 IOpCl=  3 I1Cent=           6 NGrid=           0
         NMat0=    1 NMatS0=    928 NMatT0=    0 NMatD0=    1 NMtDS0=    0 NMtDT0=    0
 Petite list used in FoFCou.
 DBF EigKep=  1.04D-06 EigRej=  9.58D-07
 NDBF=    734  NBFD=   734
 NRank=   723 NBFDU=   723
 S*AI*S=  7.25973252928    
 ExpMin= 9.52D-02 ExpMax= 2.70D+04 ExpMxC= 9.22D+02 IAcc=3 IRadAn=         5 AccDes= 0.00D+00
 Harris functional with IExCor= 3630 and IRadAn=       5 diagonalized for initial guess.
 HarFok:  IExCor= 3630 AccDes= 0.00D+00 IRadAn=         5 IDoV= 1 UseB2=F ITyADJ=14
 ICtDFT=  3500011 ScaDFX=  1.000000  1.000000  1.000000  1.000000
 FoFCou: FMM=F IPFlag=           0 FMFlag=      100000 FMFlg1=           0
         NFxFlg=           0 DoJE=T BraDBF=F KetDBF=T FulRan=T
         wScrn=  0.000000 ICntrl=       500 IOpCl=  0 I1Cent=   200000004 NGrid=           0
         NMat0=    1 NMatS0=      1 NMatT0=    0 NMatD0=    1 NMtDS0=    0 NMtDT0=    0
 Petite list used in FoFCou.
 Requested convergence on RMS density matrix=1.00D-08 within 128 cycles.
 Requested convergence on MAX density matrix=1.00D-06.
 Requested convergence on             energy=1.00D-06.
 No special actions if energy rises.
 FoFCou: FMM=F IPFlag=           0 FMFlag=      100000 FMFlg1=           0
         NFxFlg=           0 DoJE=T BraDBF=T KetDBF=F FulRan=T
         wScrn=  0.000000 ICntrl=       500 IOpCl=  0 I1Cent=           5 NGrid=           0
         NMat0=    1 NMatS0=      1 NMatT0=    0 NMatD0=    1 NMtDS0=    0 NMtDT0=    0
 Symmetry not used in FoFCou.
 Initial convergence to 1.0D-05 achieved.  Increase integral accuracy.
 SCF Done:  E(RB97D3) =  -193.059328481     A.U. after   14 cycles
            NFock= 14  Conv=0.19D-08     -V/T= 2.0057

 **********************************************************************

            Population analysis using the SCF Density.

 **********************************************************************

 Orbital symmetries:
       Occupied  (A) (A) (A) (A) (A) (A) (A) (A) (A) (A) (A) (A)
                 (A) (A) (A) (A)
       Virtual   (A) (A) (A) (A) (A) (A) (A) (A) (A) (A) (A) (A)
                 (A) (A) (A) (A) (A) (A) (A) (A) (A) (A) (A) (A)
                 (A) (A) (A) (A) (A) (A) (A) (A) (A) (A) (A) (A)
                 (A) (A) (A) (A) (A) (A) (A) (A) (A) (A) (A) (A)
                 (A) (A) (A) (A) (A) (A) (A) (A) (A) (A) (A) (A)
                 (A) (A) (A) (A) (A) (A) (A) (A) (A) (A) (A) (A)
                 (A) (A) (A) (A) (A) (A) (A) (A) (A) (A) (A) (A)
                 (A) (A) (A) (A) (A) (A) (A) (A) (A) (A) (A) (A)
                 (A) (A) (A) (A) (A) (A) (A) (A) (A) (A) (A) (A)
                 (A) (A) (A) (A) (A) (A) (A) (A) (A) (A) (A) (A)
                 (A) (A) (A) (A) (A) (A) (A) (A) (A) (A) (A) (A)
                 (A) (A) (A) (A) (A) (A) (A) (A) (A) (A) (A) (A)
 The electronic state is 1-A.
 Alpha  occ. eigenvalues --  -18.76828  -9.96449  -9.95586  -9.89554  -0.94864
 Alpha  occ. eigenvalues --   -0.68172  -0.60076  -0.53374  -0.44336  -0.41208
 Alpha  occ. eigenvalues --   -0.38395  -0.36313  -0.33048  -0.32269  -0.26304
 Alpha  occ. eigenvalues --   -0.22730
 Alpha virt. eigenvalues --    0.02120   0.03960   0.04008   0.05797   0.06415
 Alpha virt. eigenvalues --    0.09307   0.10000   0.10987   0.14489   0.17540
 Alpha virt. eigenvalues --    0.19893   0.20888   0.23719   0.25318   0.26692
 Alpha virt. eigenvalues --    0.27718   0.30063   0.33118   0.34996   0.37056
 Alpha virt. eigenvalues --    0.38579   0.39612   0.40524   0.42747   0.43443
 Alpha virt. eigenvalues --    0.44442   0.45596   0.46421   0.53270   0.53681
 Alpha virt. eigenvalues --    0.63773   0.67863   0.71963   0.75871   0.79533
 Alpha virt. eigenvalues --    0.83478   0.84572   0.87930   0.91573   0.95686
 Alpha virt. eigenvalues --    0.97996   0.99012   1.02743   1.07436   1.09286
 Alpha virt. eigenvalues --    1.13136   1.19381   1.33732   1.41837   1.42497
 Alpha virt. eigenvalues --    1.43378   1.44503   1.47637   1.48799   1.49019
 Alpha virt. eigenvalues --    1.55528   1.58951   1.59785   1.63310   1.68665
 Alpha virt. eigenvalues --    1.72211   1.78227   1.80104   1.82130   1.88315
 Alpha virt. eigenvalues --    1.90433   1.97216   1.99247   2.03990   2.09519
 Alpha virt. eigenvalues --    2.12646   2.14520   2.20744   2.25204   2.26051
 Alpha virt. eigenvalues --    2.29302   2.32469   2.36956   2.41606   2.45661
 Alpha virt. eigenvalues --    2.49078   2.49593   2.52904   2.55367   2.58237
 Alpha virt. eigenvalues --    2.61769   2.63060   2.66944   2.73710   2.79295
 Alpha virt. eigenvalues --    2.82318   2.85644   2.86801   2.94628   2.95322
 Alpha virt. eigenvalues --    2.99064   3.00391   3.05273   3.08415   3.13300
 Alpha virt. eigenvalues --    3.15565   3.16965   3.26456   3.27389   3.29548
 Alpha virt. eigenvalues --    3.30891   3.35859   3.39632   3.47481   3.51802
 Alpha virt. eigenvalues --    3.54262   3.64490   3.76092   3.79786   3.83865
 Alpha virt. eigenvalues --    3.86768   3.96283   4.03292   4.09882   4.16924
 Alpha virt. eigenvalues --    4.21391   4.29912   4.31739   4.44263   4.49481
 Alpha virt. eigenvalues --    4.61028   4.71041   4.73340   5.12906   5.28111
 Alpha virt. eigenvalues --    5.49322   5.53159   5.57639   5.67165   5.82495
 Alpha virt. eigenvalues --    6.41939   6.43025   6.62489   6.81685   7.04639
 Alpha virt. eigenvalues --   21.97938  22.07823  22.22297  43.56908
          Condensed to atoms (all electrons):
               1          2          3          4          5          6
     1  C    4.808827   0.344986   0.387631   0.373778  -0.034915   0.210112
     2  C    0.344986   4.777592  -0.037317  -0.018058   0.402299   0.232378
     3  H    0.387631  -0.037317   0.629506  -0.063261   0.000859  -0.027148
     4  H    0.373778  -0.018058  -0.063261   0.637802   0.002164  -0.026650
     5  H   -0.034915   0.402299   0.000859   0.002164   0.634336  -0.025345
     6  O    0.210112   0.232378  -0.027148  -0.026650  -0.025345   7.980028
     7  C   -0.035386   0.324466   0.017714  -0.004850  -0.083476  -0.047183
     8  H    0.010192  -0.036923   0.000246  -0.000565  -0.005067  -0.002218
     9  H   -0.010045  -0.016599  -0.002191   0.001808   0.007327   0.006266
    10  H    0.005000  -0.037192  -0.002735   0.001045   0.009052   0.010819
               7          8          9         10
     1  C   -0.035386   0.010192  -0.010045   0.005000
     2  C    0.324466  -0.036923  -0.016599  -0.037192
     3  H    0.017714   0.000246  -0.002191  -0.002735
     4  H   -0.004850  -0.000565   0.001808   0.001045
     5  H   -0.083476  -0.005067   0.007327   0.009052
     6  O   -0.047183  -0.002218   0.006266   0.010819
     7  C    4.992129   0.402184   0.365332   0.380741
     8  H    0.402184   0.571100  -0.029427  -0.021370
     9  H    0.365332  -0.029427   0.588085  -0.015858
    10  H    0.380741  -0.021370  -0.015858   0.555352
 Mulliken charges:
               1
     1  C   -0.060179
     2  C    0.064368
     3  H    0.096695
     4  H    0.096785
     5  H    0.092766
     6  O   -0.311060
     7  C   -0.311672
     8  H    0.111849
     9  H    0.105302
    10  H    0.115146
 Sum of Mulliken charges =  -0.00000
 Mulliken charges with hydrogens summed into heavy atoms:
               1
     1  C    0.133301
     2  C    0.157134
     6  O   -0.311060
     7  C    0.020625
 Electronic spatial extent (au):  <R**2>=            277.6669
 Charge=             -0.0000 electrons
 Dipole moment (field-independent basis, Debye):
    X=             -1.1193    Y=              1.7960    Z=              0.6786  Tot=              2.2223
 Quadrupole moment (field-independent basis, Debye-Ang):
   XX=            -25.1754   YY=            -25.9371   ZZ=            -24.2900
   XY=              2.4324   XZ=              0.2682   YZ=             -0.8632
 Traceless Quadrupole moment (field-independent basis, Debye-Ang):
   XX=             -0.0412   YY=             -0.8030   ZZ=              0.8442
   XY=              2.4324   XZ=              0.2682   YZ=             -0.8632
 Octapole moment (field-independent basis, Debye-Ang**2):
  XXX=              2.6908  YYY=             -0.9423  ZZZ=             -0.0074  XYY=             -0.3150
  XXY=              1.6614  XXZ=              0.9947  XZZ=              0.8486  YZZ=             -0.3062
  YYZ=             -0.1840  XYZ=             -0.0126
 Hexadecapole moment (field-independent basis, Debye-Ang**3):
 XXXX=           -227.2741 YYYY=            -80.8661 ZZZZ=            -56.1504 XXXY=              1.4719
 XXXZ=             -0.6289 YYYX=             -0.4659 YYYZ=             -0.2194 ZZZX=             -0.2715
 ZZZY=             -0.6935 XXYY=            -49.5441 XXZZ=            -47.5762 YYZZ=            -23.5440
 XXYZ=              1.1624 YYXZ=             -0.7905 ZZXY=              0.2008
 N-N= 1.214713132848D+02 E-N=-6.936920203672D+02  KE= 1.919579263935D+02
   1 Symmetry operations used in ECPInt.
 ECPInt:  NShTT=    2346 NPrTT=    6892 LenC2=    2339 LenP2D=    5986.
 LDataN:  DoStor=T MaxTD1= 7 Len=  274
 Calling FoFJK, ICntrl=      2527 FMM=F ISym2X=0 I1Cent= 4 IOpClX= 0 NMat=1 NMatS=1 NMatT=0.
 ***** Axes restored to original set *****
 -------------------------------------------------------------------
 Center     Atomic                   Forces (Hartrees/Bohr)
 Number     Number              X              Y              Z
 -------------------------------------------------------------------
      1        6           0.025715765    0.003522216    0.004187007
      2        6          -0.024420061   -0.001930367   -0.014249467
      3        1           0.006212196    0.010565174    0.002243668
      4        1           0.004978915    0.011426917   -0.002722314
      5        1          -0.007585213    0.011954326   -0.000308998
      6        8          -0.000014321   -0.047903679    0.001969506
      7        6          -0.015107767    0.019601202    0.024884273
      8        1           0.016518932    0.004458516   -0.001810645
      9        1           0.000272885   -0.017262899   -0.000253917
     10        1          -0.006571331    0.005568593   -0.013939115
 -------------------------------------------------------------------
 Cartesian Forces:  Max     0.047903679 RMS     0.014612666

 GradGradGradGradGradGradGradGradGradGradGradGradGradGradGradGradGradGrad
 Berny optimization.
 FormGI is forming the generalized inverse of G from B-inverse, IUseBI=4.
 Internal  Forces:  Max     0.029247320 RMS     0.009804756
 Search for a local minimum.
 Step number   1 out of a maximum of   49
 All quantities printed in internal units (Hartrees-Bohrs-Radians)
 Mixed Optimization -- RFO/linear search
 Second derivative matrix not updated -- first step.
 ITU=  0
     Eigenvalues ---    0.00237   0.02215   0.03183   0.04575   0.05720
     Eigenvalues ---    0.05720   0.12920   0.15226   0.16000   0.16000
     Eigenvalues ---    0.16000   0.16000   0.16000   0.19033   0.27388
     Eigenvalues ---    0.28519   0.31755   0.32262   0.33230   0.33230
     Eigenvalues ---    0.33232   0.37230   0.37230   0.37230
 RFO step:  Lambda=-1.58010601D-02 EMin= 2.36824236D-03
 Linear search not attempted -- first point.
 Iteration  1 RMS(Cart)=  0.05317327 RMS(Int)=  0.00393779
 Iteration  2 RMS(Cart)=  0.00422289 RMS(Int)=  0.00195696
 Iteration  3 RMS(Cart)=  0.00001345 RMS(Int)=  0.00195692
 Iteration  4 RMS(Cart)=  0.00000004 RMS(Int)=  0.00195692
 Variable       Old X    -DE/DX   Delta X   Delta X   Delta X     New X
                                 (Linear)    (Quad)   (Total)
    R1        2.83670  -0.02145   0.00000  -0.05771  -0.05808   2.77861
    R2        2.08650  -0.00784   0.00000  -0.02253  -0.02253   2.06397
    R3        2.08650  -0.00788   0.00000  -0.02264  -0.02264   2.06386
    R4        2.83662  -0.02925   0.00000  -0.08937  -0.08824   2.74838
    R5        2.08645  -0.00730   0.00000  -0.02096  -0.02096   2.06550
    R6        2.83668  -0.02769   0.00000  -0.08454  -0.08529   2.75139
    R7        2.91018  -0.01319   0.00000  -0.04384  -0.04384   2.86634
    R8        2.02201   0.01698   0.00000   0.04375   0.04375   2.06576
    R9        2.02201   0.01723   0.00000   0.04440   0.04440   2.06641
   R10        2.02201   0.01632   0.00000   0.04205   0.04205   2.06406
    A1        2.07829  -0.00064   0.00000   0.02243   0.01719   2.09549
    A2        2.07829   0.00242   0.00000   0.04290   0.03754   2.11583
    A3        1.94991   0.00446   0.00000   0.04169   0.03551   1.98542
    A4        2.07836  -0.00414   0.00000  -0.06038  -0.06140   2.01695
    A5        2.07836  -0.00434   0.00000  -0.07042  -0.07107   2.00729
    A6        2.07827  -0.00641   0.00000  -0.00361  -0.00758   2.07069
    A7        2.07827   0.00447   0.00000   0.03692   0.03431   2.11258
    A8        2.07826  -0.00564   0.00000  -0.07052  -0.07135   2.00692
    A9        1.95006   0.00600   0.00000   0.04704   0.04367   1.99374
   A10        2.07826  -0.00104   0.00000  -0.03518  -0.03457   2.04369
   A11        1.91063   0.00390   0.00000   0.02337   0.02330   1.93393
   A12        1.91063  -0.00196   0.00000  -0.01335  -0.01329   1.89735
   A13        1.91063   0.00170   0.00000   0.01071   0.01060   1.92124
   A14        1.91063  -0.00129   0.00000  -0.00942  -0.00932   1.90131
   A15        1.91063  -0.00212   0.00000  -0.00766  -0.00790   1.90273
   A16        1.91063  -0.00023   0.00000  -0.00366  -0.00362   1.90701
    D1       -2.48787  -0.01006   0.00000  -0.17218  -0.17218  -2.66006
    D2        0.00012  -0.00124   0.00000  -0.02346  -0.02486  -0.02474
    D3       -0.00012   0.00176   0.00000   0.01831   0.01986   0.01975
    D4        2.48787   0.01059   0.00000   0.16703   0.16719   2.65507
    D5        2.82962  -0.00151   0.00000  -0.05410  -0.05566   2.77395
    D6       -1.35917  -0.00190   0.00000  -0.05950  -0.06117  -1.42034
    D7        0.73522  -0.00235   0.00000  -0.06560  -0.06732   0.66790
    D8       -0.92101   0.00237   0.00000   0.06685   0.06781  -0.85321
    D9        1.17338   0.00198   0.00000   0.06146   0.06230   1.23569
   D10       -3.01541   0.00153   0.00000   0.05536   0.05615  -2.95926
   D11        1.61152  -0.00054   0.00000  -0.04580  -0.04492   1.56660
   D12       -2.57727  -0.00093   0.00000  -0.05120  -0.05042  -2.62769
   D13       -0.48287  -0.00138   0.00000  -0.05729  -0.05658  -0.53945
         Item               Value     Threshold  Converged?
 Maximum Force            0.029247     0.000450     NO 
 RMS     Force            0.009805     0.000300     NO 
 Maximum Displacement     0.178901     0.001800     NO 
 RMS     Displacement     0.052594     0.001200     NO 
 Predicted change in Energy=-9.100198D-03
 GradGradGradGradGradGradGradGradGradGradGradGradGradGradGradGradGradGrad

                          Input orientation:                          
 ---------------------------------------------------------------------
 Center     Atomic      Atomic             Coordinates (Angstroms)
 Number     Number       Type             X           Y           Z
 ---------------------------------------------------------------------
      1          6           0       -0.983577   -0.313072    0.006285
      2          6           0        0.486571   -0.333964   -0.009152
      3          1           0       -1.543554   -0.537983   -0.904075
      4          1           0       -1.542935   -0.502474    0.924996
      5          1           0        1.017063   -0.562690    0.918717
      6          8           0       -0.232329    0.932146   -0.010535
      7          6           0        1.250488   -0.696033   -1.268527
      8          1           0        2.273778   -0.313946   -1.225326
      9          1           0        1.281938   -1.785349   -1.358743
     10          1           0        0.750460   -0.276216   -2.144165
 ---------------------------------------------------------------------
                    Distance matrix (angstroms):
                    1          2          3          4          5
     1  C    0.000000
     2  C    1.470378   0.000000
     3  H    1.092206   2.227986   0.000000
     4  H    1.092147   2.240519   1.829416   0.000000
     5  H    2.213008   1.093013   3.143238   2.560714   0.000000
     6  O    1.454381   1.455972   2.163100   2.156627   2.158477
     7  C    2.600548   1.516802   2.822140   3.556996   2.203702
     8  H    3.482418   2.161849   3.837372   4.384829   2.497625
     9  H    3.027121   2.135538   3.121867   3.852420   2.598437
    10  H    2.762730   2.152034   2.620848   3.838047   3.087781
                    6          7          8          9         10
     6  O    0.000000
     7  C    2.536189   0.000000
     8  H    3.051071   1.093151   0.000000
     9  H    3.390494   1.093498   1.779487   0.000000
    10  H    2.641664   1.092252   1.779378   1.782369   0.000000
 Stoichiometry    C3H6O
 Framework group  C1[X(C3H6O)]
 Deg. of freedom    24
 Full point group                 C1      NOp   1
 Largest Abelian subgroup         C1      NOp   1
 Largest concise Abelian subgroup C1      NOp   1
                         Standard orientation:                         
 ---------------------------------------------------------------------
 Center     Atomic      Atomic             Coordinates (Angstroms)
 Number     Number       Type             X           Y           Z
 ---------------------------------------------------------------------
      1          6           0        1.023289    0.635993   -0.055081
      2          6           0       -0.154917   -0.051600    0.493609
      3          1           0        0.930990    1.243764   -0.957860
      4          1           0        1.860411    0.923102    0.584903
      5          1           0       -0.189227   -0.256935    1.566613
      6          8           0        0.856159   -0.796466   -0.243110
      7          6           0       -1.517714    0.092077   -0.156645
      8          1           0       -2.171965   -0.736937    0.125615
      9          1           0       -1.968983    1.030153    0.178178
     10          1           0       -1.414447    0.109755   -1.243861
 ---------------------------------------------------------------------
 Rotational constants (GHZ):          17.6795644           6.5901537           5.8469511
 Standard basis: def2TZVP (5D, 7F)
 There are   180 symmetry adapted cartesian basis functions of A   symmetry.
 There are   160 symmetry adapted basis functions of A   symmetry.
   160 basis functions,   252 primitive gaussians,   180 cartesian basis functions
    16 alpha electrons       16 beta electrons
       nuclear repulsion energy       123.6452706785 Hartrees.
 NAtoms=   10 NActive=   10 NUniq=   10 SFac= 1.00D+00 NAtFMM=   60 NAOKFM=F Big=F
 Integral buffers will be    131072 words long.
 Raffenetti 2 integral format.
 Two-electron integral symmetry is turned on.
 Nuclear repulsion after empirical dispersion term =      123.6284395695 Hartrees.
 Standard density basis: Auto (5D, 7F)
   734 Density fitting functions
 There are   734 symmetry adapted density basis functions of A   symmetry.
 One-electron integrals computed using PRISM.
   1 Symmetry operations used in ECPInt.
 ECPInt:  NShTT=    2346 NPrTT=    6892 LenC2=    2340 LenP2D=    5996.
 LDataN:  DoStor=T MaxTD1= 6 Len=  172
 NBasis=   160 RedAO= T EigKep=  3.07D-04  NBF=   160
 NBsUse=   160 1.00D-06 EigRej= -1.00D+00 NBFU=   160
 NBasis=      160 NBas6D=      180 NTT=       12880   NTT6D=    16290
 NDBShl=      110 NDBF=        734 NDBF6D=      928  NNucDB=        0
 IDenFi=        2 ISolve=        0 FullAP=F BlkAPC=T NucTyp=        0
 TolInv= 1.00D-06 TolIt=  1.00D-10 IR12=0.
 FoFCou: FMM=F IPFlag=           0 FMFlag=           0 FMFlg1=           0
         NFxFlg=           0 DoJE=F BraDBF=T KetDBF=T FulRan=T
         wScrn=  0.000000 ICntrl=       600 IOpCl=  3 I1Cent=           6 NGrid=           0
         NMat0=    1 NMatS0=    928 NMatT0=    0 NMatD0=    1 NMtDS0=    0 NMtDT0=    0
 Petite list used in FoFCou.
 DBF EigKep=  2.00D-06 EigRej=  9.75D-07
 NDBF=    734  NBFD=   734
 NRank=   722 NBFDU=   722
 S*AI*S=  7.26921685060    
 Initial guess from the checkpoint file:  "/home/monty/scratch/Gau-144330.chk"
 B after Tr=    -0.000000    0.000000    0.000000
         Rot=    0.999879   -0.008643   -0.003479    0.012481 Ang=  -1.78 deg.
 Recovered     1 saved fitting vectors from chk file.
 ExpMin= 9.52D-02 ExpMax= 2.70D+04 ExpMxC= 9.22D+02 IAcc=3 IRadAn=         5 AccDes= 0.00D+00
 Harris functional with IExCor= 3630 and IRadAn=       5 diagonalized for initial guess.
 HarFok:  IExCor= 3630 AccDes= 0.00D+00 IRadAn=         5 IDoV= 1 UseB2=F ITyADJ=14
 ICtDFT=  3500011 ScaDFX=  1.000000  1.000000  1.000000  1.000000
 FoFCou: FMM=F IPFlag=           0 FMFlag=      100000 FMFlg1=           0
         NFxFlg=           0 DoJE=T BraDBF=F KetDBF=T FulRan=T
         wScrn=  0.000000 ICntrl=       500 IOpCl=  0 I1Cent=   200000004 NGrid=           0
         NMat0=    1 NMatS0=      1 NMatT0=    0 NMatD0=    1 NMtDS0=    0 NMtDT0=    0
 Petite list used in FoFCou.
 Requested convergence on RMS density matrix=1.00D-08 within 128 cycles.
 Requested convergence on MAX density matrix=1.00D-06.
 Requested convergence on             energy=1.00D-06.
 No special actions if energy rises.
 FoFCou: FMM=F IPFlag=           0 FMFlag=      100000 FMFlg1=           0
         NFxFlg=           0 DoJE=T BraDBF=T KetDBF=F FulRan=T
         wScrn=  0.000000 ICntrl=       500 IOpCl=  0 I1Cent=           5 NGrid=           0
         NMat0=    1 NMatS0=      1 NMatT0=    0 NMatD0=    1 NMtDS0=    0 NMtDT0=    0
 Symmetry not used in FoFCou.
 Initial convergence to 1.0D-05 achieved.  Increase integral accuracy.
 SCF Done:  E(RB97D3) =  -193.068666879     A.U. after   11 cycles
            NFock= 11  Conv=0.67D-08     -V/T= 2.0049
   1 Symmetry operations used in ECPInt.
 ECPInt:  NShTT=    2346 NPrTT=    6892 LenC2=    2340 LenP2D=    5996.
 LDataN:  DoStor=T MaxTD1= 7 Len=  274
 Calling FoFJK, ICntrl=      2527 FMM=F ISym2X=0 I1Cent= 4 IOpClX= 0 NMat=1 NMatS=1 NMatT=0.
 ***** Axes restored to original set *****
 -------------------------------------------------------------------
 Center     Atomic                   Forces (Hartrees/Bohr)
 Number     Number              X              Y              Z
 -------------------------------------------------------------------
      1        6           0.002746511    0.006665253    0.001947464
      2        6          -0.004320082    0.002699100   -0.007300834
      3        1           0.002201798    0.000892481   -0.001447812
      4        1           0.002324828    0.000005181    0.000877685
      5        1          -0.002419062    0.002306782    0.001900297
      6        8           0.001302696   -0.013339022    0.001057430
      7        6          -0.004574753    0.002875906    0.006823431
      8        1           0.001223697    0.000291306   -0.000807348
      9        1           0.001986482   -0.002040523   -0.001711184
     10        1          -0.000472114   -0.000356465   -0.001339130
 -------------------------------------------------------------------
 Cartesian Forces:  Max     0.013339022 RMS     0.003810645

 GradGradGradGradGradGradGradGradGradGradGradGradGradGradGradGradGradGrad
 Berny optimization.
 Using GEDIIS/GDIIS optimizer.
 FormGI is forming the generalized inverse of G from B-inverse, IUseBI=4.
 Internal  Forces:  Max     0.008782278 RMS     0.002377857
 Search for a local minimum.
 Step number   2 out of a maximum of   49
 All quantities printed in internal units (Hartrees-Bohrs-Radians)
 Mixed Optimization -- RFO/linear search
 Update second derivatives using D2CorX and points    1    2
 DE= -9.34D-03 DEPred=-9.10D-03 R= 1.03D+00
 TightC=F SS=  1.41D+00  RLast= 3.73D-01 DXNew= 5.0454D-01 1.1187D+00
 Trust test= 1.03D+00 RLast= 3.73D-01 DXMaxT set to 5.05D-01
 ITU=  1  0
 Use linear search instead of GDIIS.
     Eigenvalues ---    0.00236   0.02163   0.03096   0.04892   0.05575
     Eigenvalues ---    0.05748   0.13070   0.14619   0.15812   0.16000
     Eigenvalues ---    0.16000   0.16000   0.16229   0.19347   0.25861
     Eigenvalues ---    0.27175   0.29139   0.31694   0.33229   0.33231
     Eigenvalues ---    0.33413   0.37146   0.37230   0.37407
 RFO step:  Lambda=-1.12036204D-03 EMin= 2.36191916D-03
 Quartic linear search produced a step of  0.19326.
 Iteration  1 RMS(Cart)=  0.05285624 RMS(Int)=  0.00194913
 Iteration  2 RMS(Cart)=  0.00193240 RMS(Int)=  0.00044811
 Iteration  3 RMS(Cart)=  0.00000175 RMS(Int)=  0.00044811
 Iteration  4 RMS(Cart)=  0.00000000 RMS(Int)=  0.00044811
 Variable       Old X    -DE/DX   Delta X   Delta X   Delta X     New X
                                 (Linear)    (Quad)   (Total)
    R1        2.77861  -0.00352  -0.01123  -0.00565  -0.01693   2.76169
    R2        2.06397  -0.00011  -0.00435   0.00255  -0.00180   2.06217
    R3        2.06386  -0.00045  -0.00437   0.00132  -0.00305   2.06081
    R4        2.74838  -0.00714  -0.01705  -0.01580  -0.03265   2.71573
    R5        2.06550  -0.00004  -0.00405   0.00257  -0.00148   2.06401
    R6        2.75139  -0.00878  -0.01648  -0.01984  -0.03648   2.71491
    R7        2.86634  -0.00357  -0.00847  -0.00907  -0.01754   2.84880
    R8        2.06576   0.00122   0.00845  -0.00176   0.00670   2.07246
    R9        2.06641   0.00223   0.00858   0.00140   0.00998   2.07639
   R10        2.06406   0.00115   0.00813  -0.00174   0.00639   2.07045
    A1        2.09549  -0.00194   0.00332  -0.01766  -0.01538   2.08011
    A2        2.11583  -0.00187   0.00725  -0.02411  -0.01798   2.09785
    A3        1.98542   0.00344   0.00686   0.01984   0.02539   2.01081
    A4        2.01695  -0.00018  -0.01187   0.00729  -0.00494   2.01201
    A5        2.00729  -0.00009  -0.01373   0.02027   0.00638   2.01367
    A6        2.07069  -0.00289  -0.00146  -0.01382  -0.01628   2.05441
    A7        2.11258   0.00131   0.00663   0.00323   0.00915   2.12173
    A8        2.00692  -0.00202  -0.01379  -0.01610  -0.03009   1.97682
    A9        1.99374   0.00213   0.00844   0.01304   0.02078   2.01451
   A10        2.04369   0.00026  -0.00668   0.00560  -0.00090   2.04279
   A11        1.93393   0.00052   0.00450  -0.00067   0.00378   1.93771
   A12        1.89735   0.00311  -0.00257   0.02637   0.02374   1.92108
   A13        1.92124   0.00021   0.00205  -0.00029   0.00170   1.92293
   A14        1.90131  -0.00183  -0.00180  -0.01166  -0.01352   1.88779
   A15        1.90273  -0.00060  -0.00153  -0.00609  -0.00766   1.89508
   A16        1.90701  -0.00146  -0.00070  -0.00788  -0.00866   1.89835
    D1       -2.66006  -0.00131  -0.03328   0.00151  -0.03155  -2.69161
    D2       -0.02474   0.00047  -0.00480   0.01048   0.00525  -0.01949
    D3        0.01975  -0.00135   0.00384  -0.04868  -0.04433  -0.02458
    D4        2.65507   0.00043   0.03231  -0.03971  -0.00753   2.64753
    D5        2.77395  -0.00060  -0.01076  -0.11072  -0.12193   2.65202
    D6       -1.42034  -0.00057  -0.01182  -0.10885  -0.12112  -1.54146
    D7        0.66790  -0.00032  -0.01301  -0.10247  -0.11591   0.55198
    D8       -0.85321  -0.00024   0.01310  -0.10926  -0.09585  -0.94905
    D9        1.23569  -0.00021   0.01204  -0.10738  -0.09503   1.14066
   D10       -2.95926   0.00004   0.01085  -0.10100  -0.08983  -3.04909
   D11        1.56660  -0.00060  -0.00868  -0.11263  -0.12119   1.44541
   D12       -2.62769  -0.00057  -0.00974  -0.11076  -0.12038  -2.74806
   D13       -0.53945  -0.00032  -0.01093  -0.10438  -0.11517  -0.65462
         Item               Value     Threshold  Converged?
 Maximum Force            0.008782     0.000450     NO 
 RMS     Force            0.002378     0.000300     NO 
 Maximum Displacement     0.154362     0.001800     NO 
 RMS     Displacement     0.052877     0.001200     NO 
 Predicted change in Energy=-9.040324D-04
 GradGradGradGradGradGradGradGradGradGradGradGradGradGradGradGradGradGrad

                          Input orientation:                          
 ---------------------------------------------------------------------
 Center     Atomic      Atomic             Coordinates (Angstroms)
 Number     Number       Type             X           Y           Z
 ---------------------------------------------------------------------
      1          6           0       -0.983094   -0.290437    0.001566
      2          6           0        0.476813   -0.355926   -0.009998
      3          1           0       -1.531515   -0.479378   -0.922753
      4          1           0       -1.534233   -0.497991    0.919405
      5          1           0        0.981974   -0.593753    0.928732
      6          8           0       -0.197131    0.912633    0.013845
      7          6           0        1.241328   -0.702477   -1.262210
      8          1           0        2.238597   -0.246279   -1.253235
      9          1           0        1.363623   -1.791651   -1.340057
     10          1           0        0.701541   -0.344322   -2.145820
 ---------------------------------------------------------------------
                    Distance matrix (angstroms):
                    1          2          3          4          5
     1  C    0.000000
     2  C    1.461422   0.000000
     3  H    1.091251   2.209467   0.000000
     4  H    1.090532   2.219973   1.842254   0.000000
     5  H    2.193885   1.092229   3.123893   2.518047   0.000000
     6  O    1.437104   1.436667   2.143710   2.144234   2.120497
     7  C    2.591324   1.507519   2.802439   3.536241   2.208916
     8  H    3.457712   2.159061   3.791741   4.360961   2.541814
     9  H    3.092035   2.148673   3.205937   3.895677   2.593843
    10  H    2.729866   2.147643   2.549642   3.797092   3.097375
                    6          7          8          9         10
     6  O    0.000000
     7  C    2.511187   0.000000
     8  H    2.980158   1.096696   0.000000
     9  H    3.403257   1.098780   1.778002   0.000000
    10  H    2.655504   1.095633   1.780130   1.783919   0.000000
 Stoichiometry    C3H6O
 Framework group  C1[X(C3H6O)]
 Deg. of freedom    24
 Full point group                 C1      NOp   1
 Largest Abelian subgroup         C1      NOp   1
 Largest concise Abelian subgroup C1      NOp   1
                         Standard orientation:                         
 ---------------------------------------------------------------------
 Center     Atomic      Atomic             Coordinates (Angstroms)
 Number     Number       Type             X           Y           Z
 ---------------------------------------------------------------------
      1          6           0        1.026485    0.626027   -0.054074
      2          6           0       -0.149480   -0.051495    0.487980
      3          1           0        0.921390    1.238387   -0.951180
      4          1           0        1.851762    0.902487    0.603001
      5          1           0       -0.154155   -0.285270    1.554888
      6          8           0        0.841123   -0.785619   -0.249434
      7          6           0       -1.508211    0.095553   -0.148291
      8          1           0       -2.125633   -0.792557    0.032799
      9          1           0       -2.029340    0.966583    0.272480
     10          1           0       -1.405768    0.234816   -1.230199
 ---------------------------------------------------------------------
 Rotational constants (GHZ):          18.0115734           6.6629715           5.9274275
 Standard basis: def2TZVP (5D, 7F)
 There are   180 symmetry adapted cartesian basis functions of A   symmetry.
 There are   160 symmetry adapted basis functions of A   symmetry.
   160 basis functions,   252 primitive gaussians,   180 cartesian basis functions
    16 alpha electrons       16 beta electrons
       nuclear repulsion energy       124.4764466388 Hartrees.
 NAtoms=   10 NActive=   10 NUniq=   10 SFac= 1.00D+00 NAtFMM=   60 NAOKFM=F Big=F
 Integral buffers will be    131072 words long.
 Raffenetti 2 integral format.
 Two-electron integral symmetry is turned on.
 Nuclear repulsion after empirical dispersion term =      124.4595613735 Hartrees.
 Standard density basis: Auto (5D, 7F)
   734 Density fitting functions
 There are   734 symmetry adapted density basis functions of A   symmetry.
 One-electron integrals computed using PRISM.
   1 Symmetry operations used in ECPInt.
 ECPInt:  NShTT=    2346 NPrTT=    6892 LenC2=    2340 LenP2D=    6000.
 LDataN:  DoStor=T MaxTD1= 6 Len=  172
 NBasis=   160 RedAO= T EigKep=  2.89D-04  NBF=   160
 NBsUse=   160 1.00D-06 EigRej= -1.00D+00 NBFU=   160
 NBasis=      160 NBas6D=      180 NTT=       12880   NTT6D=    16290
 NDBShl=      110 NDBF=        734 NDBF6D=      928  NNucDB=        0
 IDenFi=        2 ISolve=        0 FullAP=F BlkAPC=T NucTyp=        0
 TolInv= 1.00D-06 TolIt=  1.00D-10 IR12=0.
 FoFCou: FMM=F IPFlag=           0 FMFlag=           0 FMFlg1=           0
         NFxFlg=           0 DoJE=F BraDBF=T KetDBF=T FulRan=T
         wScrn=  0.000000 ICntrl=       600 IOpCl=  3 I1Cent=           6 NGrid=           0
         NMat0=    1 NMatS0=    928 NMatT0=    0 NMatD0=    1 NMtDS0=    0 NMtDT0=    0
 Petite list used in FoFCou.
 DBF EigKep=  1.95D-06 EigRej=  8.90D-07
 NDBF=    734  NBFD=   734
 NRank=   722 NBFDU=   722
 S*AI*S=  7.26695233952    
 Initial guess from the checkpoint file:  "/home/monty/scratch/Gau-144330.chk"
 B after Tr=    -0.000000   -0.000000    0.000000
         Rot=    0.999914   -0.013009   -0.001534   -0.000241 Ang=  -1.50 deg.
 Recovered     1 saved fitting vectors from chk file.
 ExpMin= 9.52D-02 ExpMax= 2.70D+04 ExpMxC= 9.22D+02 IAcc=3 IRadAn=         5 AccDes= 0.00D+00
 Harris functional with IExCor= 3630 and IRadAn=       5 diagonalized for initial guess.
 HarFok:  IExCor= 3630 AccDes= 0.00D+00 IRadAn=         5 IDoV= 1 UseB2=F ITyADJ=14
 ICtDFT=  3500011 ScaDFX=  1.000000  1.000000  1.000000  1.000000
 FoFCou: FMM=F IPFlag=           0 FMFlag=      100000 FMFlg1=           0
         NFxFlg=           0 DoJE=T BraDBF=F KetDBF=T FulRan=T
         wScrn=  0.000000 ICntrl=       500 IOpCl=  0 I1Cent=   200000004 NGrid=           0
         NMat0=    1 NMatS0=      1 NMatT0=    0 NMatD0=    1 NMtDS0=    0 NMtDT0=    0
 Petite list used in FoFCou.
 Requested convergence on RMS density matrix=1.00D-08 within 128 cycles.
 Requested convergence on MAX density matrix=1.00D-06.
 Requested convergence on             energy=1.00D-06.
 No special actions if energy rises.
 FoFCou: FMM=F IPFlag=           0 FMFlag=      100000 FMFlg1=           0
         NFxFlg=           0 DoJE=T BraDBF=T KetDBF=F FulRan=T
         wScrn=  0.000000 ICntrl=       500 IOpCl=  0 I1Cent=           5 NGrid=           0
         NMat0=    1 NMatS0=      1 NMatT0=    0 NMatD0=    1 NMtDS0=    0 NMtDT0=    0
 Symmetry not used in FoFCou.
 Initial convergence to 1.0D-05 achieved.  Increase integral accuracy.
 SCF Done:  E(RB97D3) =  -193.069553223     A.U. after   10 cycles
            NFock= 10  Conv=0.83D-08     -V/T= 2.0046
   1 Symmetry operations used in ECPInt.
 ECPInt:  NShTT=    2346 NPrTT=    6892 LenC2=    2340 LenP2D=    6000.
 LDataN:  DoStor=T MaxTD1= 7 Len=  274
 Calling FoFJK, ICntrl=      2527 FMM=F ISym2X=0 I1Cent= 4 IOpClX= 0 NMat=1 NMatS=1 NMatT=0.
 ***** Axes restored to original set *****
 -------------------------------------------------------------------
 Center     Atomic                   Forces (Hartrees/Bohr)
 Number     Number              X              Y              Z
 -------------------------------------------------------------------
      1        6          -0.002985559    0.000221504    0.001167116
      2        6           0.003839256   -0.001633768   -0.002313809
      3        1          -0.000048369    0.000204830   -0.000488651
      4        1          -0.000292978    0.000162225    0.000559584
      5        1          -0.000110567   -0.000635732    0.000925765
      6        8          -0.000749582    0.001390722   -0.000275648
      7        6           0.000012150   -0.000143909    0.000498619
      8        1          -0.000535780   -0.000053357   -0.000232568
      9        1           0.000403537    0.001063542   -0.000121811
     10        1           0.000467892   -0.000576056    0.000281404
 -------------------------------------------------------------------
 Cartesian Forces:  Max     0.003839256 RMS     0.001157491

 GradGradGradGradGradGradGradGradGradGradGradGradGradGradGradGradGradGrad
 Berny optimization.
 Using GEDIIS/GDIIS optimizer.
 FormGI is forming the generalized inverse of G from B-inverse, IUseBI=4.
 Internal  Forces:  Max     0.003310294 RMS     0.000781205
 Search for a local minimum.
 Step number   3 out of a maximum of   49
 All quantities printed in internal units (Hartrees-Bohrs-Radians)
 Mixed Optimization -- En-DIIS/RFO-DIIS
 Update second derivatives using D2CorX and points    1    2    3
 DE= -8.86D-04 DEPred=-9.04D-04 R= 9.80D-01
 TightC=F SS=  1.41D+00  RLast= 3.49D-01 DXNew= 8.4853D-01 1.0470D+00
 Trust test= 9.80D-01 RLast= 3.49D-01 DXMaxT set to 8.49D-01
 ITU=  1  1  0
 Use linear search instead of GDIIS.
     Eigenvalues ---    0.00222   0.02157   0.03080   0.04883   0.05523
     Eigenvalues ---    0.05593   0.12546   0.14331   0.15782   0.16000
     Eigenvalues ---    0.16000   0.16042   0.16199   0.19269   0.25639
     Eigenvalues ---    0.28299   0.30741   0.33029   0.33229   0.33266
     Eigenvalues ---    0.34551   0.37228   0.37288   0.37919
 RFO step:  Lambda=-2.16431677D-04 EMin= 2.21676835D-03
 Quartic linear search produced a step of  0.06636.
 Iteration  1 RMS(Cart)=  0.03654973 RMS(Int)=  0.00086957
 Iteration  2 RMS(Cart)=  0.00092519 RMS(Int)=  0.00002022
 Iteration  3 RMS(Cart)=  0.00000048 RMS(Int)=  0.00002022
 Variable       Old X    -DE/DX   Delta X   Delta X   Delta X     New X
                                 (Linear)    (Quad)   (Total)
    R1        2.76169   0.00331  -0.00112   0.01151   0.01037   2.77206
    R2        2.06217   0.00040  -0.00012   0.00118   0.00106   2.06322
    R3        2.06081   0.00059  -0.00020   0.00177   0.00156   2.06237
    R4        2.71573   0.00014  -0.00217  -0.00088  -0.00303   2.71271
    R5        2.06401   0.00088  -0.00010   0.00268   0.00258   2.06659
    R6        2.71491   0.00148  -0.00242   0.00504   0.00261   2.71751
    R7        2.84880  -0.00024  -0.00116  -0.00091  -0.00207   2.84673
    R8        2.07246  -0.00051   0.00044  -0.00130  -0.00086   2.07160
    R9        2.07639  -0.00100   0.00066  -0.00269  -0.00203   2.07436
   R10        2.07045  -0.00065   0.00042  -0.00168  -0.00126   2.06919
    A1        2.08011  -0.00000  -0.00102   0.00083  -0.00020   2.07991
    A2        2.09785   0.00002  -0.00119   0.00261   0.00139   2.09925
    A3        2.01081   0.00013   0.00169   0.00114   0.00280   2.01362
    A4        2.01201  -0.00055  -0.00033  -0.00452  -0.00487   2.00714
    A5        2.01367   0.00033   0.00042  -0.00300  -0.00256   2.01111
    A6        2.05441  -0.00126  -0.00108  -0.00619  -0.00730   2.04711
    A7        2.12173   0.00185   0.00061   0.00902   0.00961   2.13134
    A8        1.97682   0.00021  -0.00200   0.00128  -0.00074   1.97609
    A9        2.01451  -0.00035   0.00138  -0.00004   0.00132   2.01583
   A10        2.04279   0.00028  -0.00006  -0.00290  -0.00291   2.03988
   A11        1.93771  -0.00003   0.00025  -0.00062  -0.00037   1.93734
   A12        1.92108   0.00053   0.00158   0.00329   0.00485   1.92593
   A13        1.92293   0.00045   0.00011   0.00322   0.00333   1.92626
   A14        1.88779  -0.00031  -0.00090  -0.00248  -0.00338   1.88441
   A15        1.89508  -0.00026  -0.00051  -0.00201  -0.00252   1.89256
   A16        1.89835  -0.00040  -0.00057  -0.00160  -0.00219   1.89616
    D1       -2.69161  -0.00025  -0.00209  -0.00302  -0.00509  -2.69669
    D2       -0.01949   0.00019   0.00035   0.00347   0.00380  -0.01569
    D3       -0.02458   0.00014  -0.00294   0.00807   0.00517  -0.01942
    D4        2.64753   0.00058  -0.00050   0.01456   0.01405   2.66158
    D5        2.65202  -0.00039  -0.00809  -0.07380  -0.08192   2.57010
    D6       -1.54146  -0.00046  -0.00804  -0.07514  -0.08322  -1.62468
    D7        0.55198  -0.00034  -0.00769  -0.07300  -0.08072   0.47126
    D8       -0.94905  -0.00021  -0.00636  -0.06906  -0.07541  -1.02446
    D9        1.14066  -0.00028  -0.00631  -0.07041  -0.07670   1.06395
   D10       -3.04909  -0.00016  -0.00596  -0.06827  -0.07421  -3.12330
   D11        1.44541   0.00005  -0.00804  -0.07059  -0.07862   1.36680
   D12       -2.74806  -0.00002  -0.00799  -0.07193  -0.07991  -2.82798
   D13       -0.65462   0.00011  -0.00764  -0.06979  -0.07742  -0.73204
         Item               Value     Threshold  Converged?
 Maximum Force            0.003310     0.000450     NO 
 RMS     Force            0.000781     0.000300     NO 
 Maximum Displacement     0.116112     0.001800     NO 
 RMS     Displacement     0.036541     0.001200     NO 
 Predicted change in Energy=-1.198011D-04
 GradGradGradGradGradGradGradGradGradGradGradGradGradGradGradGradGradGrad

                          Input orientation:                          
 ---------------------------------------------------------------------
 Center     Atomic      Atomic             Coordinates (Angstroms)
 Number     Number       Type             X           Y           Z
 ---------------------------------------------------------------------
      1          6           0       -0.988857   -0.279235    0.002323
      2          6           0        0.475006   -0.372691   -0.011717
      3          1           0       -1.541382   -0.441682   -0.925242
      4          1           0       -1.544458   -0.482747    0.919360
      5          1           0        0.969906   -0.632381    0.928273
      6          8           0       -0.180420    0.906716    0.027166
      7          6           0        1.244272   -0.706016   -1.263290
      8          1           0        2.216403   -0.199457   -1.273574
      9          1           0        1.425067   -1.787044   -1.323676
     10          1           0        0.682368   -0.395043   -2.150147
 ---------------------------------------------------------------------
                    Distance matrix (angstroms):
                    1          2          3          4          5
     1  C    0.000000
     2  C    1.466910   0.000000
     3  H    1.091810   2.214747   0.000000
     4  H    1.091360   2.226488   1.845062   0.000000
     5  H    2.195187   1.093593   3.127051   2.518828   0.000000
     6  O    1.435503   1.438047   2.139504   2.141779   2.122277
     7  C    2.602072   1.506423   2.818512   3.548355   2.209898
     8  H    3.450793   2.157489   3.781660   4.362716   2.566965
     9  H    3.139871   2.150406   3.281549   3.943410   2.571321
    10  H    2.727551   2.148576   2.539218   3.793194   3.100916
                    6          7          8          9         10
     6  O    0.000000
     7  C    2.509169   0.000000
     8  H    2.942840   1.096242   0.000000
     9  H    3.414485   1.097705   1.774586   0.000000
    10  H    2.679491   1.094968   1.777609   1.781102   0.000000
 Stoichiometry    C3H6O
 Framework group  C1[X(C3H6O)]
 Deg. of freedom    24
 Full point group                 C1      NOp   1
 Largest Abelian subgroup         C1      NOp   1
 Largest concise Abelian subgroup C1      NOp   1
                         Standard orientation:                         
 ---------------------------------------------------------------------
 Center     Atomic      Atomic             Coordinates (Angstroms)
 Number     Number       Type             X           Y           Z
 ---------------------------------------------------------------------
      1          6           0        1.036531    0.621048   -0.057084
      2          6           0       -0.152525   -0.042963    0.487947
      3          1           0        0.941038    1.225450   -0.961313
      4          1           0        1.866478    0.888992    0.599011
      5          1           0       -0.155222   -0.267308    1.558278
      6          8           0        0.835376   -0.787813   -0.245011
      7          6           0       -1.510597    0.097097   -0.148712
      8          1           0       -2.099038   -0.819482   -0.024754
      9          1           0       -2.066597    0.921855    0.315609
     10          1           0       -1.410123    0.301904   -1.219652
 ---------------------------------------------------------------------
 Rotational constants (GHZ):          18.0755475           6.6338305           5.9106627
 Standard basis: def2TZVP (5D, 7F)
 There are   180 symmetry adapted cartesian basis functions of A   symmetry.
 There are   160 symmetry adapted basis functions of A   symmetry.
   160 basis functions,   252 primitive gaussians,   180 cartesian basis functions
    16 alpha electrons       16 beta electrons
       nuclear repulsion energy       124.3839809250 Hartrees.
 NAtoms=   10 NActive=   10 NUniq=   10 SFac= 1.00D+00 NAtFMM=   60 NAOKFM=F Big=F
 Integral buffers will be    131072 words long.
 Raffenetti 2 integral format.
 Two-electron integral symmetry is turned on.
 Nuclear repulsion after empirical dispersion term =      124.3671282447 Hartrees.
 Standard density basis: Auto (5D, 7F)
   734 Density fitting functions
 There are   734 symmetry adapted density basis functions of A   symmetry.
 One-electron integrals computed using PRISM.
   1 Symmetry operations used in ECPInt.
 ECPInt:  NShTT=    2346 NPrTT=    6892 LenC2=    2340 LenP2D=    5998.
 LDataN:  DoStor=T MaxTD1= 6 Len=  172
 NBasis=   160 RedAO= T EigKep=  2.90D-04  NBF=   160
 NBsUse=   160 1.00D-06 EigRej= -1.00D+00 NBFU=   160
 NBasis=      160 NBas6D=      180 NTT=       12880   NTT6D=    16290
 NDBShl=      110 NDBF=        734 NDBF6D=      928  NNucDB=        0
 IDenFi=        2 ISolve=        0 FullAP=F BlkAPC=T NucTyp=        0
 TolInv= 1.00D-06 TolIt=  1.00D-10 IR12=0.
 FoFCou: FMM=F IPFlag=           0 FMFlag=           0 FMFlg1=           0
         NFxFlg=           0 DoJE=F BraDBF=T KetDBF=T FulRan=T
         wScrn=  0.000000 ICntrl=       600 IOpCl=  3 I1Cent=           6 NGrid=           0
         NMat0=    1 NMatS0=    928 NMatT0=    0 NMatD0=    1 NMtDS0=    0 NMtDT0=    0
 Petite list used in FoFCou.
 DBF EigKep=  1.99D-06 EigRej=  8.99D-07
 NDBF=    734  NBFD=   734
 NRank=   722 NBFDU=   722
 S*AI*S=  7.26920498928    
 Initial guess from the checkpoint file:  "/home/monty/scratch/Gau-144330.chk"
 B after Tr=     0.000000    0.000000   -0.000000
         Rot=    0.999998   -0.001796    0.000330    0.001019 Ang=  -0.24 deg.
 Recovered     1 saved fitting vectors from chk file.
 ExpMin= 9.52D-02 ExpMax= 2.70D+04 ExpMxC= 9.22D+02 IAcc=3 IRadAn=         5 AccDes= 0.00D+00
 Harris functional with IExCor= 3630 and IRadAn=       5 diagonalized for initial guess.
 HarFok:  IExCor= 3630 AccDes= 0.00D+00 IRadAn=         5 IDoV= 1 UseB2=F ITyADJ=14
 ICtDFT=  3500011 ScaDFX=  1.000000  1.000000  1.000000  1.000000
 FoFCou: FMM=F IPFlag=           0 FMFlag=      100000 FMFlg1=           0
         NFxFlg=           0 DoJE=T BraDBF=F KetDBF=T FulRan=T
         wScrn=  0.000000 ICntrl=       500 IOpCl=  0 I1Cent=   200000004 NGrid=           0
         NMat0=    1 NMatS0=      1 NMatT0=    0 NMatD0=    1 NMtDS0=    0 NMtDT0=    0
 Petite list used in FoFCou.
 Requested convergence on RMS density matrix=1.00D-08 within 128 cycles.
 Requested convergence on MAX density matrix=1.00D-06.
 Requested convergence on             energy=1.00D-06.
 No special actions if energy rises.
 FoFCou: FMM=F IPFlag=           0 FMFlag=      100000 FMFlg1=           0
         NFxFlg=           0 DoJE=T BraDBF=T KetDBF=F FulRan=T
         wScrn=  0.000000 ICntrl=       500 IOpCl=  0 I1Cent=           5 NGrid=           0
         NMat0=    1 NMatS0=      1 NMatT0=    0 NMatD0=    1 NMtDS0=    0 NMtDT0=    0
 Symmetry not used in FoFCou.
 Initial convergence to 1.0D-05 achieved.  Increase integral accuracy.
 SCF Done:  E(RB97D3) =  -193.069689942     A.U. after   10 cycles
            NFock= 10  Conv=0.95D-08     -V/T= 2.0046
   1 Symmetry operations used in ECPInt.
 ECPInt:  NShTT=    2346 NPrTT=    6892 LenC2=    2340 LenP2D=    5998.
 LDataN:  DoStor=T MaxTD1= 7 Len=  274
 Calling FoFJK, ICntrl=      2527 FMM=F ISym2X=0 I1Cent= 4 IOpClX= 0 NMat=1 NMatS=1 NMatT=0.
 ***** Axes restored to original set *****
 -------------------------------------------------------------------
 Center     Atomic                   Forces (Hartrees/Bohr)
 Number     Number              X              Y              Z
 -------------------------------------------------------------------
      1        6          -0.000781592    0.000033064    0.000228946
      2        6           0.000930755   -0.000965376   -0.000651661
      3        1           0.000026282   -0.000271130   -0.000017538
      4        1           0.000072971   -0.000248812    0.000054667
      5        1          -0.000134367   -0.000186182    0.000103186
      6        8           0.000252174    0.001505935   -0.000027226
      7        6          -0.000442979   -0.000254590    0.000010056
      8        1          -0.000207080    0.000178070    0.000221964
      9        1           0.000021646    0.000364489    0.000099702
     10        1           0.000262190   -0.000155469   -0.000022096
 -------------------------------------------------------------------
 Cartesian Forces:  Max     0.001505935 RMS     0.000449045

 GradGradGradGradGradGradGradGradGradGradGradGradGradGradGradGradGradGrad
 Berny optimization.
 Using GEDIIS/GDIIS optimizer.
 FormGI is forming the generalized inverse of G from B-inverse, IUseBI=4.
 Internal  Forces:  Max     0.000856713 RMS     0.000286003
 Search for a local minimum.
 Step number   4 out of a maximum of   49
 All quantities printed in internal units (Hartrees-Bohrs-Radians)
 Mixed Optimization -- En-DIIS/RFO-DIIS
 Swapping is turned off.
 Update second derivatives using D2CorX and points    2    3    4
 DE= -1.37D-04 DEPred=-1.20D-04 R= 1.14D+00
 TightC=F SS=  1.41D+00  RLast= 2.38D-01 DXNew= 1.4270D+00 7.1279D-01
 Trust test= 1.14D+00 RLast= 2.38D-01 DXMaxT set to 8.49D-01
 ITU=  1  1  1  0
     Eigenvalues ---    0.00180   0.02139   0.03030   0.05134   0.05506
     Eigenvalues ---    0.05560   0.12739   0.14100   0.15774   0.15996
     Eigenvalues ---    0.16002   0.16180   0.16461   0.19004   0.26454
     Eigenvalues ---    0.28661   0.30968   0.32809   0.33229   0.33251
     Eigenvalues ---    0.34032   0.37224   0.37230   0.37605
 En-DIIS/RFO-DIIS/Sim-DIIS IScMMF=       -3 using points:     4    3
 RFO step:  Lambda=-4.02031309D-05.
 DidBck=F Rises=F RFO-DIIS coefs:    1.48103   -0.48103
 Iteration  1 RMS(Cart)=  0.01664760 RMS(Int)=  0.00019129
 Iteration  2 RMS(Cart)=  0.00019564 RMS(Int)=  0.00001156
 Iteration  3 RMS(Cart)=  0.00000002 RMS(Int)=  0.00001156
 Variable       Old X    -DE/DX   Delta X   Delta X   Delta X     New X
                                 (Linear)    (Quad)   (Total)
    R1        2.77206   0.00023   0.00499  -0.00397   0.00101   2.77307
    R2        2.06322   0.00004   0.00051  -0.00040   0.00011   2.06334
    R3        2.06237   0.00006   0.00075  -0.00055   0.00020   2.06257
    R4        2.71271   0.00080  -0.00146   0.00371   0.00228   2.71498
    R5        2.06659   0.00007   0.00124  -0.00084   0.00040   2.06699
    R6        2.71751   0.00086   0.00125   0.00168   0.00293   2.72044
    R7        2.84673  -0.00047  -0.00100  -0.00176  -0.00276   2.84397
    R8        2.07160  -0.00010  -0.00041   0.00030  -0.00011   2.07148
    R9        2.07436  -0.00036  -0.00098  -0.00010  -0.00108   2.07329
   R10        2.06919  -0.00016  -0.00060   0.00024  -0.00036   2.06883
    A1        2.07991  -0.00003  -0.00010  -0.00202  -0.00213   2.07777
    A2        2.09925  -0.00026   0.00067  -0.00341  -0.00276   2.09649
    A3        2.01362   0.00010   0.00135  -0.00021   0.00112   2.01473
    A4        2.00714  -0.00007  -0.00234   0.00467   0.00232   2.00946
    A5        2.01111   0.00019  -0.00123   0.00366   0.00243   2.01354
    A6        2.04711  -0.00037  -0.00351   0.00006  -0.00347   2.04364
    A7        2.13134   0.00042   0.00462  -0.00000   0.00461   2.13595
    A8        1.97609   0.00005  -0.00036  -0.00027  -0.00064   1.97545
    A9        2.01583  -0.00004   0.00063  -0.00039   0.00023   2.01606
   A10        2.03988  -0.00012  -0.00140  -0.00044  -0.00182   2.03806
   A11        1.93734  -0.00055  -0.00018  -0.00480  -0.00498   1.93236
   A12        1.92593  -0.00002   0.00233  -0.00166   0.00066   1.92660
   A13        1.92626   0.00048   0.00160   0.00325   0.00484   1.93110
   A14        1.88441   0.00019  -0.00163   0.00143  -0.00020   1.88421
   A15        1.89256   0.00000  -0.00121   0.00048  -0.00072   1.89183
   A16        1.89616  -0.00011  -0.00106   0.00141   0.00034   1.89650
    D1       -2.69669   0.00028  -0.00245   0.00756   0.00512  -2.69157
    D2       -0.01569   0.00028   0.00183   0.00663   0.00845  -0.00724
    D3       -0.01942  -0.00014   0.00249  -0.00609  -0.00359  -0.02301
    D4        2.66158  -0.00014   0.00676  -0.00702  -0.00026   2.66132
    D5        2.57010   0.00007  -0.03941   0.00137  -0.03806   2.53204
    D6       -1.62468  -0.00006  -0.04003  -0.00103  -0.04108  -1.66575
    D7        0.47126   0.00011  -0.03883   0.00176  -0.03708   0.43418
    D8       -1.02446  -0.00001  -0.03627   0.00057  -0.03570  -1.06016
    D9        1.06395  -0.00014  -0.03690  -0.00183  -0.03872   1.02523
   D10       -3.12330   0.00003  -0.03570   0.00095  -0.03473   3.12516
   D11        1.36680  -0.00014  -0.03782  -0.00093  -0.03874   1.32805
   D12       -2.82798  -0.00026  -0.03844  -0.00333  -0.04176  -2.86974
   D13       -0.73204  -0.00010  -0.03724  -0.00055  -0.03777  -0.76981
         Item               Value     Threshold  Converged?
 Maximum Force            0.000857     0.000450     NO 
 RMS     Force            0.000286     0.000300     YES
 Maximum Displacement     0.048618     0.001800     NO 
 RMS     Displacement     0.016651     0.001200     NO 
 Predicted change in Energy=-2.035314D-05
 GradGradGradGradGradGradGradGradGradGradGradGradGradGradGradGradGradGrad

                          Input orientation:                          
 ---------------------------------------------------------------------
 Center     Atomic      Atomic             Coordinates (Angstroms)
 Number     Number       Type             X           Y           Z
 ---------------------------------------------------------------------
      1          6           0       -0.990468   -0.271429    0.002294
      2          6           0        0.472882   -0.379827   -0.013613
      3          1           0       -1.543720   -0.427121   -0.926066
      4          1           0       -1.545139   -0.479268    0.919051
      5          1           0        0.962539   -0.651114    0.926093
      6          8           0       -0.169868    0.907463    0.033234
      7          6           0        1.243231   -0.707786   -1.264182
      8          1           0        2.202521   -0.177540   -1.278963
      9          1           0        1.450794   -1.783956   -1.314020
     10          1           0        0.675133   -0.419003   -2.154353
 ---------------------------------------------------------------------
                    Distance matrix (angstroms):
                    1          2          3          4          5
     1  C    0.000000
     2  C    1.467446   0.000000
     3  H    1.091870   2.213932   0.000000
     4  H    1.091467   2.225345   1.845854   0.000000
     5  H    2.193581   1.093803   3.124419   2.513569   0.000000
     6  O    1.436707   1.439597   2.142158   2.144543   2.123371
     7  C    2.604569   1.504964   2.821382   3.548765   2.208914
     8  H    3.441745   2.152598   3.771094   4.355142   2.573732
     9  H    3.159143   2.149174   3.310382   3.957832   2.557309
    10  H    2.728944   2.150630   2.536152   3.791973   3.102519
                    6          7          8          9         10
     6  O    0.000000
     7  C    2.507821   0.000000
     8  H    2.920158   1.096182   0.000000
     9  H    3.418388   1.097136   1.773948   0.000000
    10  H    2.694268   1.094777   1.776942   1.780704   0.000000
 Stoichiometry    C3H6O
 Framework group  C1[X(C3H6O)]
 Deg. of freedom    24
 Full point group                 C1      NOp   1
 Largest Abelian subgroup         C1      NOp   1
 Largest concise Abelian subgroup C1      NOp   1
                         Standard orientation:                         
 ---------------------------------------------------------------------
 Center     Atomic      Atomic             Coordinates (Angstroms)
 Number     Number       Type             X           Y           Z
 ---------------------------------------------------------------------
      1          6           0        1.039693    0.619137   -0.061479
      2          6           0       -0.153197   -0.036038    0.487299
      3          1           0        0.944676    1.220183   -0.968063
      4          1           0        1.866920    0.890967    0.596628
      5          1           0       -0.154852   -0.250334    1.559904
      6          8           0        0.833132   -0.791384   -0.240056
      7          6           0       -1.510427    0.096681   -0.149277
      8          1           0       -2.080208   -0.833985   -0.045229
      9          1           0       -2.082143    0.899077    0.333432
     10          1           0       -1.415867    0.326487   -1.215478
 ---------------------------------------------------------------------
 Rotational constants (GHZ):          18.0666560           6.6327550           5.9069105
 Standard basis: def2TZVP (5D, 7F)
 There are   180 symmetry adapted cartesian basis functions of A   symmetry.
 There are   160 symmetry adapted basis functions of A   symmetry.
   160 basis functions,   252 primitive gaussians,   180 cartesian basis functions
    16 alpha electrons       16 beta electrons
       nuclear repulsion energy       124.3526950079 Hartrees.
 NAtoms=   10 NActive=   10 NUniq=   10 SFac= 1.00D+00 NAtFMM=   60 NAOKFM=F Big=F
 Integral buffers will be    131072 words long.
 Raffenetti 2 integral format.
 Two-electron integral symmetry is turned on.
 Nuclear repulsion after empirical dispersion term =      124.3358457514 Hartrees.
 Standard density basis: Auto (5D, 7F)
   734 Density fitting functions
 There are   734 symmetry adapted density basis functions of A   symmetry.
 One-electron integrals computed using PRISM.
   1 Symmetry operations used in ECPInt.
 ECPInt:  NShTT=    2346 NPrTT=    6892 LenC2=    2340 LenP2D=    5998.
 LDataN:  DoStor=T MaxTD1= 6 Len=  172
 NBasis=   160 RedAO= T EigKep=  2.88D-04  NBF=   160
 NBsUse=   160 1.00D-06 EigRej= -1.00D+00 NBFU=   160
 NBasis=      160 NBas6D=      180 NTT=       12880   NTT6D=    16290
 NDBShl=      110 NDBF=        734 NDBF6D=      928  NNucDB=        0
 IDenFi=        2 ISolve=        0 FullAP=F BlkAPC=T NucTyp=        0
 TolInv= 1.00D-06 TolIt=  1.00D-10 IR12=0.
 FoFCou: FMM=F IPFlag=           0 FMFlag=           0 FMFlg1=           0
         NFxFlg=           0 DoJE=F BraDBF=T KetDBF=T FulRan=T
         wScrn=  0.000000 ICntrl=       600 IOpCl=  3 I1Cent=           6 NGrid=           0
         NMat0=    1 NMatS0=    928 NMatT0=    0 NMatD0=    1 NMtDS0=    0 NMtDT0=    0
 Petite list used in FoFCou.
 DBF EigKep=  2.00D-06 EigRej=  8.86D-07
 NDBF=    734  NBFD=   734
 NRank=   722 NBFDU=   722
 S*AI*S=  7.26887079327    
 Initial guess from the checkpoint file:  "/home/monty/scratch/Gau-144330.chk"
 B after Tr=     0.000000   -0.000000   -0.000000
         Rot=    0.999999    0.001293    0.000005   -0.000011 Ang=   0.15 deg.
 Recovered     1 saved fitting vectors from chk file.
 ExpMin= 9.52D-02 ExpMax= 2.70D+04 ExpMxC= 9.22D+02 IAcc=3 IRadAn=         5 AccDes= 0.00D+00
 Harris functional with IExCor= 3630 and IRadAn=       5 diagonalized for initial guess.
 HarFok:  IExCor= 3630 AccDes= 0.00D+00 IRadAn=         5 IDoV= 1 UseB2=F ITyADJ=14
 ICtDFT=  3500011 ScaDFX=  1.000000  1.000000  1.000000  1.000000
 FoFCou: FMM=F IPFlag=           0 FMFlag=      100000 FMFlg1=           0
         NFxFlg=           0 DoJE=T BraDBF=F KetDBF=T FulRan=T
         wScrn=  0.000000 ICntrl=       500 IOpCl=  0 I1Cent=   200000004 NGrid=           0
         NMat0=    1 NMatS0=      1 NMatT0=    0 NMatD0=    1 NMtDS0=    0 NMtDT0=    0
 Petite list used in FoFCou.
 Requested convergence on RMS density matrix=1.00D-08 within 128 cycles.
 Requested convergence on MAX density matrix=1.00D-06.
 Requested convergence on             energy=1.00D-06.
 No special actions if energy rises.
 FoFCou: FMM=F IPFlag=           0 FMFlag=      100000 FMFlg1=           0
         NFxFlg=           0 DoJE=T BraDBF=T KetDBF=F FulRan=T
         wScrn=  0.000000 ICntrl=       500 IOpCl=  0 I1Cent=           5 NGrid=           0
         NMat0=    1 NMatS0=      1 NMatT0=    0 NMatD0=    1 NMtDS0=    0 NMtDT0=    0
 Symmetry not used in FoFCou.
 Initial convergence to 1.0D-05 achieved.  Increase integral accuracy.
 SCF Done:  E(RB97D3) =  -193.069709591     A.U. after    9 cycles
            NFock=  9  Conv=0.74D-08     -V/T= 2.0047
   1 Symmetry operations used in ECPInt.
 ECPInt:  NShTT=    2346 NPrTT=    6892 LenC2=    2340 LenP2D=    5998.
 LDataN:  DoStor=T MaxTD1= 7 Len=  274
 Calling FoFJK, ICntrl=      2527 FMM=F ISym2X=0 I1Cent= 4 IOpClX= 0 NMat=1 NMatS=1 NMatT=0.
 ***** Axes restored to original set *****
 -------------------------------------------------------------------
 Center     Atomic                   Forces (Hartrees/Bohr)
 Number     Number              X              Y              Z
 -------------------------------------------------------------------
      1        6           0.000147728   -0.000164861   -0.000071617
      2        6           0.000074986   -0.000198032    0.000109594
      3        1          -0.000082164    0.000083239    0.000074194
      4        1          -0.000019935    0.000104604   -0.000029053
      5        1           0.000059536    0.000002255   -0.000063063
      6        8          -0.000241022    0.000233972    0.000049668
      7        6          -0.000013349   -0.000142805   -0.000186351
      8        1           0.000006709    0.000055864    0.000064553
      9        1          -0.000019535    0.000027957    0.000026098
     10        1           0.000087046   -0.000002192    0.000025976
 -------------------------------------------------------------------
 Cartesian Forces:  Max     0.000241022 RMS     0.000106130

 GradGradGradGradGradGradGradGradGradGradGradGradGradGradGradGradGradGrad
 Berny optimization.
 Using GEDIIS/GDIIS optimizer.
 FormGI is forming the generalized inverse of G from B-inverse, IUseBI=4.
 Internal  Forces:  Max     0.000337985 RMS     0.000086507
 Search for a local minimum.
 Step number   5 out of a maximum of   49
 All quantities printed in internal units (Hartrees-Bohrs-Radians)
 Mixed Optimization -- En-DIIS/RFO-DIIS
 Swapping is turned off.
 Update second derivatives using D2CorX and points    3    4    5
 DE= -1.96D-05 DEPred=-2.04D-05 R= 9.65D-01
 TightC=F SS=  1.41D+00  RLast= 1.16D-01 DXNew= 1.4270D+00 3.4738D-01
 Trust test= 9.65D-01 RLast= 1.16D-01 DXMaxT set to 8.49D-01
 ITU=  1  1  1  1  0
     Eigenvalues ---    0.00188   0.02136   0.03031   0.05245   0.05515
     Eigenvalues ---    0.05591   0.12882   0.14168   0.15580   0.15874
     Eigenvalues ---    0.16017   0.16182   0.16271   0.18909   0.26512
     Eigenvalues ---    0.28683   0.30026   0.32802   0.33228   0.33242
     Eigenvalues ---    0.34160   0.37176   0.37260   0.37632
 En-DIIS/RFO-DIIS/Sim-DIIS IScMMF=       -3 using points:     5    4    3
 RFO step:  Lambda=-1.76327992D-06.
 DidBck=F Rises=F RFO-DIIS coefs:    0.87448    0.17236   -0.04683
 Iteration  1 RMS(Cart)=  0.00102490 RMS(Int)=  0.00000124
 Iteration  2 RMS(Cart)=  0.00000073 RMS(Int)=  0.00000099
 Variable       Old X    -DE/DX   Delta X   Delta X   Delta X     New X
                                 (Linear)    (Quad)   (Total)
    R1        2.77307   0.00001   0.00036  -0.00021   0.00015   2.77322
    R2        2.06334  -0.00003   0.00004  -0.00008  -0.00005   2.06329
    R3        2.06257  -0.00003   0.00005  -0.00010  -0.00005   2.06252
    R4        2.71498  -0.00007  -0.00043   0.00041  -0.00002   2.71497
    R5        2.06699  -0.00003   0.00007  -0.00012  -0.00005   2.06694
    R6        2.72044   0.00034  -0.00025   0.00130   0.00105   2.72150
    R7        2.84397   0.00010   0.00025   0.00011   0.00036   2.84433
    R8        2.07148   0.00003  -0.00003   0.00002  -0.00001   2.07148
    R9        2.07329  -0.00003   0.00004  -0.00021  -0.00017   2.07312
   R10        2.06883  -0.00007  -0.00001  -0.00023  -0.00024   2.06858
    A1        2.07777   0.00015   0.00026   0.00090   0.00116   2.07893
    A2        2.09649   0.00004   0.00041   0.00001   0.00042   2.09691
    A3        2.01473  -0.00012  -0.00001  -0.00053  -0.00053   2.01420
    A4        2.00946  -0.00004  -0.00052  -0.00008  -0.00060   2.00885
    A5        2.01354  -0.00010  -0.00043  -0.00054  -0.00096   2.01258
    A6        2.04364   0.00001   0.00009   0.00025   0.00035   2.04399
    A7        2.13595   0.00014  -0.00013   0.00066   0.00053   2.13648
    A8        1.97545   0.00002   0.00005   0.00001   0.00006   1.97550
    A9        2.01606  -0.00013   0.00003  -0.00073  -0.00070   2.01536
   A10        2.03806   0.00010   0.00009   0.00016   0.00025   2.03831
   A11        1.93236  -0.00013   0.00061  -0.00163  -0.00102   1.93134
[...]
      6        8           0.000005733    0.000031406    0.000024036
      7        6          -0.000013467   -0.000012288   -0.000012320
      8        1           0.000034101    0.000027430    0.000014759
      9        1          -0.000008438   -0.000015652    0.000019607
     10        1           0.000006627    0.000007926   -0.000002861
 -------------------------------------------------------------------
 Cartesian Forces:  Max     0.000091835 RMS     0.000029610
 FormGI is forming the generalized inverse of G from B-inverse, IUseBI=4.

 GradGradGradGradGradGradGradGradGradGradGradGradGradGradGradGradGradGrad
 Berny optimization.
 Internal  Forces:  Max     0.000062221 RMS     0.000021511
 Search for a local minimum.
 Step number   1 out of a maximum of    2
 All quantities printed in internal units (Hartrees-Bohrs-Radians)
 Second derivative matrix not updated -- analytic derivatives used.
 ITU=  0
     Eigenvalues ---    0.00180   0.02237   0.02744   0.04153   0.04284
     Eigenvalues ---    0.04657   0.08541   0.09338   0.10522   0.11906
     Eigenvalues ---    0.12165   0.13528   0.14930   0.21327   0.24169
     Eigenvalues ---    0.24918   0.29792   0.32138   0.32417   0.32568
     Eigenvalues ---    0.32875   0.33156   0.33493   0.34341
 Angle between quadratic step and forces=  65.71 degrees.
 Linear search not attempted -- first point.
 Iteration  1 RMS(Cart)=  0.00060619 RMS(Int)=  0.00000024
 Iteration  2 RMS(Cart)=  0.00000024 RMS(Int)=  0.00000002
 Variable       Old X    -DE/DX   Delta X   Delta X   Delta X     New X
                                 (Linear)    (Quad)   (Total)
    R1        2.77322  -0.00006   0.00000  -0.00028  -0.00028   2.77294
    R2        2.06329  -0.00001   0.00000  -0.00001  -0.00001   2.06327
    R3        2.06252   0.00000   0.00000   0.00003   0.00003   2.06255
    R4        2.71497  -0.00000   0.00000  -0.00001  -0.00001   2.71495
    R5        2.06694  -0.00003   0.00000  -0.00007  -0.00007   2.06688
    R6        2.72150   0.00003   0.00000   0.00015   0.00015   2.72165
    R7        2.84433  -0.00001   0.00000  -0.00002  -0.00002   2.84431
    R8        2.07148   0.00004   0.00000   0.00012   0.00012   2.07160
    R9        2.07312   0.00001   0.00000   0.00004   0.00004   2.07316
   R10        2.06858   0.00000   0.00000  -0.00001  -0.00001   2.06858
    A1        2.07893   0.00003   0.00000   0.00029   0.00029   2.07922
    A2        2.09691  -0.00001   0.00000  -0.00016  -0.00016   2.09675
    A3        2.01420  -0.00002   0.00000  -0.00029  -0.00029   2.01391
    A4        2.00885   0.00001   0.00000   0.00034   0.00034   2.00919
    A5        2.01258  -0.00001   0.00000  -0.00000  -0.00000   2.01257
    A6        2.04399  -0.00001   0.00000   0.00003   0.00003   2.04402
    A7        2.13648   0.00005   0.00000   0.00050   0.00050   2.13698
    A8        1.97550  -0.00000   0.00000  -0.00016  -0.00016   1.97534
    A9        2.01536  -0.00004   0.00000  -0.00040  -0.00040   2.01497
   A10        2.03831   0.00001   0.00000   0.00017   0.00017   2.03848
   A11        1.93134  -0.00002   0.00000  -0.00023  -0.00023   1.93112
   A12        1.92653  -0.00003   0.00000  -0.00026  -0.00026   1.92627
   A13        1.93182   0.00002   0.00000   0.00019   0.00019   1.93201
   A14        1.88439   0.00002   0.00000   0.00009   0.00009   1.88448
   A15        1.89176   0.00000   0.00000   0.00005   0.00005   1.89181
   A16        1.89678   0.00001   0.00000   0.00016   0.00016   1.89694
    D1       -2.69289   0.00002   0.00000   0.00014   0.00014  -2.69275
    D2       -0.00831   0.00001   0.00000   0.00034   0.00034  -0.00798
    D3       -0.02199  -0.00000   0.00000  -0.00033  -0.00033  -0.02233
    D4        2.66258  -0.00001   0.00000  -0.00013  -0.00013   2.66245
    D5        2.53309   0.00001   0.00000   0.00098   0.00098   2.53407
    D6       -1.66517   0.00001   0.00000   0.00078   0.00078  -1.66439
    D7        0.43553   0.00001   0.00000   0.00093   0.00093   0.43647
    D8       -1.05862   0.00002   0.00000   0.00127   0.00127  -1.05735
    D9        1.02631   0.00001   0.00000   0.00108   0.00108   1.02738
   D10        3.12701   0.00002   0.00000   0.00123   0.00123   3.12823
   D11        1.32913  -0.00002   0.00000   0.00072   0.00072   1.32985
   D12       -2.86913  -0.00002   0.00000   0.00052   0.00052  -2.86861
   D13       -0.76843  -0.00002   0.00000   0.00067   0.00067  -0.76775
         Item               Value     Threshold  Converged?
 Maximum Force            0.000062     0.000450     YES
 RMS     Force            0.000022     0.000300     YES
 Maximum Displacement     0.001490     0.001800     YES
 RMS     Displacement     0.000606     0.001200     YES
 Predicted change in Energy=-8.435603D-08
 Optimization completed.
    -- Stationary point found.
                           ----------------------------
                           !   Optimized Parameters   !
                           ! (Angstroms and Degrees)  !
 --------------------------                            --------------------------
 ! Name  Definition              Value          Derivative Info.                !
 --------------------------------------------------------------------------------
 ! R1    R(1,2)                  1.4675         -DE/DX =   -0.0001              !
 ! R2    R(1,3)                  1.0918         -DE/DX =    0.0                 !
 ! R3    R(1,4)                  1.0914         -DE/DX =    0.0                 !
 ! R4    R(1,6)                  1.4367         -DE/DX =    0.0                 !
 ! R5    R(2,5)                  1.0938         -DE/DX =    0.0                 !
 ! R6    R(2,6)                  1.4402         -DE/DX =    0.0                 !
 ! R7    R(2,7)                  1.5052         -DE/DX =    0.0                 !
 ! R8    R(7,8)                  1.0962         -DE/DX =    0.0                 !
 ! R9    R(7,9)                  1.097          -DE/DX =    0.0                 !
 ! R10   R(7,10)                 1.0946         -DE/DX =    0.0                 !
 ! A1    A(2,1,3)              119.114          -DE/DX =    0.0                 !
 ! A2    A(2,1,4)              120.1439         -DE/DX =    0.0                 !
 ! A3    A(3,1,4)              115.4051         -DE/DX =    0.0                 !
 ! A4    A(3,1,6)              115.0986         -DE/DX =    0.0                 !
 ! A5    A(4,1,6)              115.3123         -DE/DX =    0.0                 !
 ! A6    A(1,2,5)              117.112          -DE/DX =    0.0                 !
 ! A7    A(1,2,7)              122.4113         -DE/DX =    0.0                 !
 ! A8    A(5,2,6)              113.1881         -DE/DX =    0.0                 !
 ! A9    A(5,2,7)              115.4719         -DE/DX =    0.0                 !
 ! A10   A(6,2,7)              116.7865         -DE/DX =    0.0                 !
 ! A11   A(2,7,8)              110.6578         -DE/DX =    0.0                 !
 ! A12   A(2,7,9)              110.3819         -DE/DX =    0.0                 !
 ! A13   A(2,7,10)             110.6848         -DE/DX =    0.0                 !
 ! A14   A(8,7,9)              107.9677         -DE/DX =    0.0                 !
 ! A15   A(8,7,10)             108.3896         -DE/DX =    0.0                 !
 ! A16   A(9,7,10)             108.6775         -DE/DX =    0.0                 !
 ! D1    D(3,1,2,5)           -154.2911         -DE/DX =    0.0                 !
 ! D2    D(3,1,2,7)             -0.4762         -DE/DX =    0.0                 !
 ! D3    D(4,1,2,5)             -1.2601         -DE/DX =    0.0                 !
 ! D4    D(4,1,2,7)            152.5548         -DE/DX =    0.0                 !
 ! D5    D(1,2,7,8)            145.1356         -DE/DX =    0.0                 !
 ! D6    D(1,2,7,9)            -95.407          -DE/DX =    0.0                 !
 ! D7    D(1,2,7,10)            24.9543         -DE/DX =    0.0                 !
 ! D8    D(5,2,7,8)            -60.6544         -DE/DX =    0.0                 !
 ! D9    D(5,2,7,9)             58.803          -DE/DX =    0.0                 !
 ! D10   D(5,2,7,10)           179.1642         -DE/DX =    0.0                 !
 ! D11   D(6,2,7,8)             76.1538         -DE/DX =    0.0                 !
 ! D12   D(6,2,7,9)           -164.3889         -DE/DX =    0.0                 !
 ! D13   D(6,2,7,10)           -44.0276         -DE/DX =    0.0                 !
 --------------------------------------------------------------------------------
 GradGradGradGradGradGradGradGradGradGradGradGradGradGradGradGradGradGrad


 ----------------------------------------------------------------------

 Electric dipole moment (input orientation):
 (Debye = 10**-18 statcoulomb cm , SI units = C m)
                  (au)            (Debye)         (10**-30 SI)
   Tot        0.738257D+00      0.187646D+01      0.625921D+01
   x          0.314376D-01      0.799065D-01      0.266539D+00
   y         -0.732772D+00     -0.186252D+01     -0.621270D+01
   z         -0.841449D-01     -0.213875D+00     -0.713411D+00

 Dipole polarizability, Alpha (input orientation).
 (esu units = cm**3 , SI units = C**2 m**2 J**-1)
 Alpha(0;0):
               (au)            (10**-24 esu)      (10**-40 SI)
   iso        0.399988D+02      0.592721D+01      0.659491D+01
   aniso      0.111354D+02      0.165010D+01      0.183599D+01
   xx         0.459580D+02      0.681027D+01      0.757744D+01
   yx        -0.166439D+01     -0.246636D+00     -0.274420D+00
   yy         0.355019D+02      0.526085D+01      0.585348D+01
   zx        -0.299330D+01     -0.443561D+00     -0.493529D+00
   zy         0.816521D+00      0.120996D+00      0.134626D+00
   zz         0.385364D+02      0.571050D+01      0.635379D+01

 ----------------------------------------------------------------------

 Dipole orientation:
     6         -1.88833289          0.13518094          0.42999041
     6          0.86360943          0.02295187          0.75395328
     1         -3.02038581         -1.53130592          0.87544885
     1         -2.87558355          1.94022580          0.57536810
     1          1.84508472          1.80898842          1.09896845
     8         -0.25460040         -0.12424171         -1.72283494
     6          2.19352032         -2.30635885          1.70045387
     1          4.04036967         -2.51586749          0.78597783
     1          2.50362169         -2.17963956          3.74632874
     1          1.07312648         -3.99942720          1.30387543

 Electric dipole moment (dipole orientation):
 (Debye = 10**-18 statcoulomb cm , SI units = C m)
                  (au)            (Debye)         (10**-30 SI)
   Tot        0.738257D+00      0.187646D+01      0.625921D+01
   x          0.000000D+00      0.000000D+00      0.000000D+00
   y          0.000000D+00      0.000000D+00      0.000000D+00
   z          0.738257D+00      0.187646D+01      0.625921D+01

 Dipole polarizability, Alpha (dipole orientation).
 (esu units = cm**3 , SI units = C**2 m**2 J**-1)
 Alpha(0;0):
               (au)            (10**-24 esu)      (10**-40 SI)
   iso        0.399988D+02      0.592721D+01      0.659491D+01
   aniso      0.111354D+02      0.165010D+01      0.183599D+01
   xx         0.455515D+02      0.675003D+01      0.751042D+01
   yx        -0.300799D+01     -0.445738D+00     -0.495950D+00
   yy         0.385300D+02      0.570956D+01      0.635274D+01
   zx         0.237359D+01      0.351729D+00      0.391351D+00
   zy        -0.134781D+01     -0.199725D+00     -0.222224D+00
   zz         0.359148D+02      0.532203D+01      0.592156D+01

 ----------------------------------------------------------------------
 Unable to Open any file for archive entry.
 1\1\GINC-RTX\Freq\RB97D3\def2TZVP/Auto\C3H6O1\MONTY\21-Mar-2026\0\\#N 
 Geom=AllCheck Guess=TCheck SCRF=Check GenChk RB97D3/def2TZVP/Auto Freq
 \\propylene oxide\\0,1\C,-0.9906607989,-0.2720349841,0.0025163529\C,0.
 4727874569,-0.3800748544,-0.0139581072\H,-1.5452438469,-0.4267910323,-
 0.9251760303\H,-1.5452072753,-0.4786415178,0.919592799\H,0.9632303473,
 -0.6508484586,0.925457072\O,-0.1708376689,0.9074000295,0.0329172131\C,
 1.2434978252,-0.7080200575,-1.2645373146\H,2.2028170615,-0.1777970082,
 -1.2778072725\H,1.4508872536,-1.7841325759,-1.314386493\H,0.6766334754
 ,-0.4186397406,-2.1551417795\\Version=ES64L-G16RevC.01\State=1-A\HF=-1
 93.0697105\RMSD=3.504e-09\RMSF=2.961e-05\ZeroPoint=0.0835261\Thermal=0
 .0879948\ETot=-192.9817157\HTot=-192.9807715\GTot=-193.0125989\Dipole=
 0.0314376,-0.7327722,-0.0841449\DipoleDeriv=0.2279365,0.0889319,0.0103
 767,0.1952757,0.2943768,-0.0110055,0.019763,-0.0126164,0.3217874,0.351
 0717,-0.1174254,-0.06942,-0.2141398,0.3800178,0.0473983,-0.0898135,0.0
 586634,0.411579,-0.0320914,-0.0544244,-0.0392583,-0.044839,0.0519698,-
 0.0124403,-0.1031502,-0.0351064,-0.1003527,-0.0563807,-0.0526714,0.069
 919,-0.0376323,0.0523433,0.0158875,0.1100262,0.0463916,-0.0957872,-0.0
 445,0.0763729,-0.0456894,0.0548007,0.0269293,0.0162561,-0.0569231,0.05
 39433,-0.1462699,-0.4141701,-0.003884,0.0556085,0.0322671,-0.8636716,-
 0.0669893,0.0470292,-0.0491233,-0.3569484,0.0473191,0.0604959,0.057861
 8,0.0216405,0.1205408,-0.0163979,0.0489691,-0.0453632,-0.0420682,-0.11
 70893,-0.061758,0.0361841,-0.1038902,0.0213319,0.0050246,0.0275596,-0.
 0358684,0.0367494,0.0460342,0.0293657,0.0236676,0.0663601,-0.1384521,-
 0.0283239,0.0339356,0.0026916,0.0426645,-0.00813,0.0349967,-0.09925,0.
 0301573,0.054614,0.0505902,-0.0373961,0.0163877,-0.071354\Polar=45.957
 9648,-1.6643851,35.5019493,-2.9933006,0.8165213,38.5363915\Quadrupole=
 1.4869448,-2.0955987,0.6086539,0.3611312,0.0091031,-0.5804716\PG=C01 [
 X(C3H6O1)]\NImag=0\\0.59204371,0.08799964,0.23642286,-0.00032243,-0.00
 991328,0.61759177,-0.27932505,0.00054296,-0.00327123,0.56972561,0.0488
 6074,0.01155852,-0.00002518,-0.11813757,0.28475900,0.00002023,0.001679
 65,-0.05782786,0.03295694,-0.03021593,0.56574314,-0.10659229,-0.015718
 07,-0.10650366,-0.01139288,-0.00679374,-0.02197824,0.12049383,-0.01037
 695,-0.03992312,-0.02054047,0.00514126,-0.00360409,0.01625609,0.026042
 48,0.04594079,-0.10828258,-0.02259115,-0.25036956,0.00313699,-0.000903
 11,0.00150919,0.11911386,0.02868634,0.25672706,-0.10735023,-0.02151968
 ,0.10650055,-0.00855398,-0.00798914,0.02030796,0.00860966,0.00341877,-
 0.01273110,0.12006057,-0.01585259,-0.04373783,0.03232973,0.00213050,-0
 .00271637,-0.01663201,0.00273991,0.00335650,-0.00177879,0.03278359,0.0
 4990004,0.10825282,0.03409571,-0.24877582,-0.00408346,0.00017754,0.001
 54049,0.01282397,0.00297511,-0.01662548,-0.11789525,-0.04056877,0.2534
 1578,-0.01196810,0.00908022,-0.02360409,-0.09441867,0.02536123,-0.0959
 2763,-0.00152118,0.00252735,0.00073635,0.00076535,-0.00106772,0.000228
 77,0.10622177,-0.00351051,-0.00275647,-0.01228072,0.01979275,-0.049027
 37,0.04508562,-0.00188876,0.00192420,-0.00003120,0.00096506,-0.0001090
 8,0.00059056,-0.03766992,0.06028481,0.00316809,0.00001301,0.00128925,-
 0.09677024,0.04658049,-0.24722371,0.00070793,-0.00060553,0.00034037,-0
 .00017129,0.00066282,0.00053410,0.10227619,-0.05339391,0.25800715,-0.0
 7446768,-0.06682524,-0.00173504,-0.05684723,0.04315656,0.00057313,-0.0
 1122038,-0.02489133,-0.00233948,-0.01112363,-0.02429272,0.00097817,-0.
 00669093,0.02498970,-0.00066749,0.16638222,-0.10506821,-0.15793623,-0.
 00133698,0.08048025,-0.16942131,0.00005542,-0.00511270,-0.00780964,-0.
 00325268,-0.00612391,-0.00880261,0.00309076,0.00533030,-0.01566959,0.0
 0306277,0.02144432,0.37064255,-0.00324271,-0.00344921,-0.06014429,-0.0
 0067089,0.00371067,-0.06145754,-0.00436727,-0.02651520,0.00731062,0.00
 424734,0.02566961,0.00947951,-0.00031368,0.02591522,0.00861452,-0.0007
 5194,0.00677380,0.09145308,-0.01514155,0.00775736,0.02520768,-0.105961
 12,0.01084558,0.05014426,0.00144050,-0.00137442,0.00057129,-0.00194154
 ,0.00269741,-0.00020396,0.00771516,-0.00362512,-0.01216487,-0.00576693
 ,0.00736071,0.00274985,0.52474632,-0.00520467,-0.00400483,0.01355907,0
 .00420919,-0.06719728,-0.01131170,0.00102210,0.00009558,-0.00025220,-0
 .00200388,0.00244611,-0.00017267,-0.00405695,0.00462371,0.00514477,0.0
 2879166,-0.01545040,-0.03127597,0.00349467,0.53286548,0.00152869,-0.00
 145204,0.00123231,0.05225306,-0.01559379,-0.17745390,-0.00133962,-0.00
 015412,0.00069373,-0.00148179,0.00076789,-0.00020665,0.01479424,-0.005
 33600,-0.01943531,0.00327026,-0.00471572,0.00419545,0.04112284,-0.0209
 8624,0.49402100,0.00036325,-0.00140960,0.00360373,-0.01718747,-0.00676
 407,0.00072982,0.00053474,-0.00026896,-0.00000797,-0.00049965,0.001028
 46,-0.00002129,0.00064261,0.00035538,0.00038371,0.00142188,0.00114831,
 -0.00086877,-0.23661887,-0.10825152,-0.00133051,0.25875038,0.00238329,
 0.00014928,-0.00180030,0.00809516,0.00297465,0.00001857,-0.00017461,0.
 00002740,-0.00001821,0.00035117,-0.00035083,-0.00010747,-0.00032891,-0
 .00006730,0.00044523,-0.00136804,0.00188187,0.00104451,-0.10895265,-0.
 10445196,0.00052804,0.11894028,0.11050525,0.00091724,0.00076959,-0.004
 70822,0.02822073,0.01378006,-0.00065476,0.00020930,0.00003189,0.000098
 90,0.00103213,-0.00087856,0.00031565,-0.00074454,0.00013974,0.00073139
 ,-0.00285122,-0.00062730,0.00191743,-0.00123391,-0.00007484,-0.0453555
 5,-0.00276244,0.00062942,0.04817527,0.00091723,0.00083211,-0.00114917,
 -0.00385711,0.01656111,-0.00206988,-0.00017331,-0.00000743,-0.00002264
 ,0.00003253,-0.00015708,0.00003071,0.00044555,-0.00046259,0.00009691,-
 0.00264560,0.00110070,0.00464575,-0.05137789,0.04520865,0.00203054,0.0
 0598899,-0.02732571,-0.00130883,0.05419052,0.00040464,-0.00070056,-0.0
 0032169,0.00091133,-0.00716449,0.00136822,0.00010858,0.00000502,-0.000
 00860,0.00023966,0.00007197,0.00000896,0.00002477,0.00027966,-0.000606
 26,0.00042583,0.00218369,-0.00184509,0.04564752,-0.28669811,-0.0095068
 6,0.00316561,-0.01462051,-0.00032382,-0.05139866,0.31323858,-0.0007267
 5,-0.00029700,0.00115083,0.00328895,-0.02644741,0.00178746,0.00033224,
 0.00023154,0.00000770,0.00011390,0.00020687,-0.00008535,-0.00092350,0.
 00104239,0.00014598,0.00412652,-0.00227717,-0.00458771,0.00182960,-0.0
 0913867,-0.04623263,-0.00034984,-0.00012917,-0.00102449,-0.00427690,0.
 01182724,0.04662821,0.00152072,-0.00073968,0.00127366,0.00781791,-0.00
 510068,0.01524342,-0.00017868,-0.00021077,-0.00017472,0.00000093,-0.00
 000976,-0.00011047,-0.00119156,0.00105400,0.00314106,0.00095828,-0.000
 55978,-0.00142768,-0.11709408,0.03679076,-0.11084771,-0.01339586,0.008
 38003,-0.02147847,-0.00352090,0.00047075,-0.00341421,0.12508326,0.0003
 6463,0.00092839,0.00032983,-0.00316582,-0.00016127,-0.00630394,-0.0002
 2517,-0.00001263,0.00014959,-0.00012163,-0.00005790,-0.00008972,0.0007
 9962,0.00051743,-0.00130339,-0.00143074,0.00038167,-0.00002833,0.03614
 894,-0.06222831,0.05644885,-0.00794388,0.00395215,-0.01344619,0.015648
 91,-0.00659525,0.02498137,-0.04007487,0.06327572,-0.00131260,0.0011447
 2,0.00056159,-0.01506085,0.00893665,-0.02596250,0.00100149,-0.00036566
 ,0.00030747,0.00007757,0.00022122,0.00040775,0.00347789,-0.00173169,-0
 .00300373,-0.00060291,-0.00077290,0.00321894,-0.10802279,0.05450845,-0
 .21145845,0.00062357,-0.00061061,0.00050438,0.00202351,-0.00059210,0.0
 0221000,0.11779513,-0.06073808,0.23321456\\-0.00008220,-0.00002177,0.0
 0002482,0.00009184,0.00004580,0.00001245,0.00001857,0.00002273,-0.0000
 2537,0.00000195,0.00000714,0.00000099,-0.00000560,-0.00001507,0.000030
 33,-0.00000573,-0.00003141,-0.00002404,0.00001347,0.00001229,0.0000123
 2,-0.00003410,-0.00002743,-0.00001476,0.00000844,0.00001565,-0.0000196
 1,-0.00000663,-0.00000793,0.00000286\\\@
 The archive entry for this job was punched.


 Everything starts as somebody's daydream.
                           -- Larry Niven
 Job cpu time:       0 days  0 hours  1 minutes 33.9 seconds.
 Elapsed time:       0 days  0 hours  0 minutes 23.5 seconds.
 File lengths (MBytes):  RWF=     32 Int=      0 D2E=      0 Chk=      7 Scr=      1
 Normal termination of Gaussian 16 at Sat Mar 21 20:58:25 2026.
