 Entering Gaussian System, Link 0=g16
 Input=propionaldehyde_strans.com
 Output=propionaldehyde_strans.log
 Initial command:
 /usr/local//g16/l1.exe "/home/monty/scratch/Gau-138843.inp" -scrdir="/home/monty/scratch/"
 Entering Link 1 = /usr/local//g16/l1.exe PID=    138845.
  
 Copyright (c) 1988-2019, Gaussian, Inc.  All Rights Reserved.
  
 This is part of the Gaussian(R) 16 program.  It is based on
 the Gaussian(R) 09 system (copyright 2009, Gaussian, Inc.),
 the Gaussian(R) 03 system (copyright 2003, Gaussian, Inc.),
 the Gaussian(R) 98 system (copyright 1998, Gaussian, Inc.),
 the Gaussian(R) 94 system (copyright 1995, Gaussian, Inc.),
 the Gaussian 92(TM) system (copyright 1992, Gaussian, Inc.),
 the Gaussian 90(TM) system (copyright 1990, Gaussian, Inc.),
 the Gaussian 88(TM) system (copyright 1988, Gaussian, Inc.),
 the Gaussian 86(TM) system (copyright 1986, Carnegie Mellon
 University), and the Gaussian 82(TM) system (copyright 1983,
 Carnegie Mellon University). Gaussian is a federally registered
 trademark of Gaussian, Inc.
  
 This software contains proprietary and confidential information,
 including trade secrets, belonging to Gaussian, Inc.
  
 This software is provided under written license and may be
 used, copied, transmitted, or stored only in accord with that
 written license.
  
 The following legend is applicable only to US Government
 contracts under FAR:
  
                    RESTRICTED RIGHTS LEGEND
  
 Use, reproduction and disclosure by the US Government is
 subject to restrictions as set forth in subparagraphs (a)
 and (c) of the Commercial Computer Software - Restricted
 Rights clause in FAR 52.227-19.
  
 Gaussian, Inc.
 340 Quinnipiac St., Bldg. 40, Wallingford CT 06492
  
  
 ---------------------------------------------------------------
 Warning -- This program may not be used in any manner that
 competes with the business of Gaussian, Inc. or will provide
 assistance to any competitor of Gaussian, Inc.  The licensee
 of this program is prohibited from giving any competitor of
 Gaussian, Inc. access to this program.  By using this program,
 the user acknowledges that Gaussian, Inc. is engaged in the
 business of creating and licensing software in the field of
 computational chemistry and represents and warrants to the
 licensee that it is not a competitor of Gaussian, Inc. and that
 it will not use this program in any manner prohibited above.
 ---------------------------------------------------------------
  

 Cite this work as:
 Gaussian 16, Revision C.01,
 M. J. Frisch, G. W. Trucks, H. B. Schlegel, G. E. Scuseria, 
 M. A. Robb, J. R. Cheeseman, G. Scalmani, V. Barone, 
 G. A. Petersson, H. Nakatsuji, X. Li, M. Caricato, A. V. Marenich, 
 J. Bloino, B. G. Janesko, R. Gomperts, B. Mennucci, H. P. Hratchian, 
 J. V. Ortiz, A. F. Izmaylov, J. L. Sonnenberg, D. Williams-Young, 
 F. Ding, F. Lipparini, F. Egidi, J. Goings, B. Peng, A. Petrone, 
 T. Henderson, D. Ranasinghe, V. G. Zakrzewski, J. Gao, N. Rega, 
 G. Zheng, W. Liang, M. Hada, M. Ehara, K. Toyota, R. Fukuda, 
 J. Hasegawa, M. Ishida, T. Nakajima, Y. Honda, O. Kitao, H. Nakai, 
 T. Vreven, K. Throssell, J. A. Montgomery, Jr., J. E. Peralta, 
 F. Ogliaro, M. J. Bearpark, J. J. Heyd, E. N. Brothers, K. N. Kudin, 
 V. N. Staroverov, T. A. Keith, R. Kobayashi, J. Normand, 
 K. Raghavachari, A. P. Rendell, J. C. Burant, S. S. Iyengar, 
 J. Tomasi, M. Cossi, J. M. Millam, M. Klene, C. Adamo, R. Cammi, 
 J. W. Ochterski, R. L. Martin, K. Morokuma, O. Farkas, 
 J. B. Foresman, and D. J. Fox, Gaussian, Inc., Wallingford CT, 2019.
 
 ******************************************
 Gaussian 16:  ES64L-G16RevC.01  3-Jul-2019
                21-Mar-2026 
 ******************************************
 %mem=512MW
 %nprocshared=4
 Will use up to    4 processors via shared memory.
 --------------------------------------------------------
 # opt freq b97d3/def2tzvp/auto EmpiricalDispersion=GD3BJ
 --------------------------------------------------------
 1/18=20,19=15,26=3,38=1/1,3;
 2/9=110,12=2,17=6,18=5,40=1/2;
 3/5=44,7=101,11=2,25=1,30=1,71=1,74=-59,82=28,124=41/1,2,3;
 4//1;
 5/5=2,38=5/2;
 6/7=2,8=2,9=2,10=2,28=1/1;
 7//1,2,3,16;
 1/18=20,19=15,26=3/3(2);
 2/9=110/2;
 99//99;
 2/9=110/2;
 3/5=44,7=101,11=2,25=1,30=1,71=1,74=-59,82=28,124=41/1,2,3;
 4/5=5,16=3,69=1/1;
 5/5=2,38=5/2;
 7//1,2,3,16;
 1/18=20,19=15,26=3/3(-5);
 2/9=110/2;
 6/7=2,8=2,9=2,10=2,19=2,28=1/1;
 99/9=1/99;
 -----------------------
 propionaldehyde s-trans
 -----------------------
 Symbolic Z-matrix:
 Charge =  0 Multiplicity = 1
 C                     1.77823  -0.20972  -0.12002 
 H                     1.94892  -0.95991   0.67486 
 H                     1.78885  -0.73992  -1.0949 
 H                     2.62636   0.48133  -0.12007 
 C                     0.45155   0.54882   0.10003 
 H                     0.23546   1.3282   -0.66443 
 H                     0.49549   1.0882    1.08449 
 C                    -0.7704   -0.35363   0.22002 
 O                    -1.91259   0.04277  -0.19003 
 H                    -0.5506   -1.45288   0.78011 
 

 GradGradGradGradGradGradGradGradGradGradGradGradGradGradGradGradGradGrad
 Berny optimization.
 Initialization pass.
                           ----------------------------
                           !    Initial Parameters    !
                           ! (Angstroms and Degrees)  !
 --------------------------                            --------------------------
 ! Name  Definition              Value          Derivative Info.                !
 --------------------------------------------------------------------------------
 ! R1    R(1,2)                  1.1062         estimate D2E/DX2                !
 ! R2    R(1,3)                  1.1098         estimate D2E/DX2                !
 ! R3    R(1,4)                  1.094          estimate D2E/DX2                !
 ! R4    R(1,5)                  1.544          estimate D2E/DX2                !
 ! R5    R(5,6)                  1.1129         estimate D2E/DX2                !
 ! R6    R(5,7)                  1.1234         estimate D2E/DX2                !
 ! R7    R(5,8)                  1.5238         estimate D2E/DX2                !
 ! R8    R(8,9)                  1.2767         estimate D2E/DX2                !
 ! R9    R(8,10)                 1.2531         estimate D2E/DX2                !
 ! A1    A(2,1,3)              107.8027         estimate D2E/DX2                !
 ! A2    A(2,1,4)              107.9851         estimate D2E/DX2                !
 ! A3    A(2,1,5)              111.3053         estimate D2E/DX2                !
 ! A4    A(3,1,4)              107.1172         estimate D2E/DX2                !
 ! A5    A(3,1,5)              111.6004         estimate D2E/DX2                !
 ! A6    A(4,1,5)              110.8432         estimate D2E/DX2                !
 ! A7    A(1,5,6)              114.3934         estimate D2E/DX2                !
 ! A8    A(1,5,7)              109.097          estimate D2E/DX2                !
 ! A9    A(1,5,8)              114.1617         estimate D2E/DX2                !
 ! A10   A(6,5,7)              105.861          estimate D2E/DX2                !
 ! A11   A(6,5,8)              108.2485         estimate D2E/DX2                !
 ! A12   A(7,5,8)              104.283          estimate D2E/DX2                !
 ! A13   A(5,8,9)              120.5483         estimate D2E/DX2                !
 ! A14   A(5,8,10)             114.4588         estimate D2E/DX2                !
 ! A15   A(9,8,10)             124.9492         estimate D2E/DX2                !
 ! D1    D(2,1,5,6)            179.1701         estimate D2E/DX2                !
 ! D2    D(2,1,5,7)             60.8383         estimate D2E/DX2                !
 ! D3    D(2,1,5,8)            -55.3593         estimate D2E/DX2                !
 ! D4    D(3,1,5,6)            -60.3414         estimate D2E/DX2                !
 ! D5    D(3,1,5,7)           -178.6732         estimate D2E/DX2                !
 ! D6    D(3,1,5,8)             65.1292         estimate D2E/DX2                !
 ! D7    D(4,1,5,6)             58.9643         estimate D2E/DX2                !
 ! D8    D(4,1,5,7)            -59.3675         estimate D2E/DX2                !
 ! D9    D(4,1,5,8)           -175.5651         estimate D2E/DX2                !
 ! D10   D(1,5,8,9)           -148.1548         estimate D2E/DX2                !
 ! D11   D(1,5,8,10)            34.1338         estimate D2E/DX2                !
 ! D12   D(6,5,8,9)            -19.5061         estimate D2E/DX2                !
 ! D13   D(6,5,8,10)           162.7825         estimate D2E/DX2                !
 ! D14   D(7,5,8,9)             92.8832         estimate D2E/DX2                !
 ! D15   D(7,5,8,10)           -84.8281         estimate D2E/DX2                !
 --------------------------------------------------------------------------------
 Trust Radius=3.00D-01 FncErr=1.00D-07 GrdErr=1.00D-06 EigMax=2.50D+02 EigMin=1.00D-04
 Number of steps in this run=     49 maximum allowed number of steps=    100.
 GradGradGradGradGradGradGradGradGradGradGradGradGradGradGradGradGradGrad

                          Input orientation:                          
 ---------------------------------------------------------------------
 Center     Atomic      Atomic             Coordinates (Angstroms)
 Number     Number       Type             X           Y           Z
 ---------------------------------------------------------------------
      1          6           0        1.778230   -0.209719   -0.120021
      2          1           0        1.948920   -0.959906    0.674860
      3          1           0        1.788847   -0.739921   -1.094900
      4          1           0        2.626355    0.481328   -0.120065
      5          6           0        0.451551    0.548818    0.100029
      6          1           0        0.235464    1.328204   -0.664431
      7          1           0        0.495491    1.088197    1.084493
      8          6           0       -0.770404   -0.353631    0.220016
      9          8           0       -1.912592    0.042772   -0.190027
     10          1           0       -0.550598   -1.452882    0.780113
 ---------------------------------------------------------------------
                    Distance matrix (angstroms):
                    1          2          3          4          5
     1  C    0.000000
     2  H    1.106233   0.000000
     3  H    1.109782   1.790549   0.000000
     4  H    1.094012   1.779882   1.772899   0.000000
     5  C    1.543981   2.201997   2.208408   2.186954   0.000000
     6  H    2.245377   3.156751   2.622107   2.594204   1.112895
     7  H    2.186518   2.544598   3.124826   2.521871   1.123401
     8  C    2.575242   2.822973   2.903100   3.514368   1.523806
     9  O    3.700111   4.082238   3.889994   4.560621   2.435033
    10  H    2.789110   2.549842   3.081719   3.826816   2.339577
                    6          7          8          9         10
     6  H    0.000000
     7  H    1.784363   0.000000
     8  C    2.150020   2.104443   0.000000
     9  O    2.547850   2.918249   1.276661   0.000000
    10  H    3.230950   2.764784   1.253146   2.243475   0.000000
 Stoichiometry    C3H6O
 Framework group  C1[X(C3H6O)]
 Deg. of freedom    24
 Full point group                 C1      NOp   1
 Largest Abelian subgroup         C1      NOp   1
 Largest concise Abelian subgroup C1      NOp   1
                         Standard orientation:                         
 ---------------------------------------------------------------------
 Center     Atomic      Atomic             Coordinates (Angstroms)
 Number     Number       Type             X           Y           Z
 ---------------------------------------------------------------------
      1          6           0       -1.778658    0.186573   -0.157222
      2          1           0       -1.948371    1.048596    0.514987
      3          1           0       -1.791655    0.562712   -1.201237
      4          1           0       -2.626217   -0.496906   -0.050634
      5          6           0       -0.450923   -0.529125    0.172588
      6          1           0       -0.235728   -1.415371   -0.465217
      7          1           0       -0.492456   -0.912908    1.227584
      8          6           0        0.770532    0.381696    0.151693
      9          8           0        1.912222   -0.071759   -0.195852
     10          1           0        0.550949    1.553092    0.538977
 ---------------------------------------------------------------------
 Rotational constants (GHZ):          28.3044876           4.0368299           3.8141859
 Standard basis: def2TZVP (5D, 7F)
 There are   180 symmetry adapted cartesian basis functions of A   symmetry.
 There are   160 symmetry adapted basis functions of A   symmetry.
   160 basis functions,   252 primitive gaussians,   180 cartesian basis functions
    16 alpha electrons       16 beta electrons
       nuclear repulsion energy       113.3506652552 Hartrees.
 NAtoms=   10 NActive=   10 NUniq=   10 SFac= 1.00D+00 NAtFMM=   60 NAOKFM=F Big=F
 Integral buffers will be    131072 words long.
 Raffenetti 2 integral format.
 Two-electron integral symmetry is turned on.
 Nuclear repulsion after empirical dispersion term =      113.3331940406 Hartrees.
 Standard density basis: Auto (5D, 7F)
   734 Density fitting functions
 There are   734 symmetry adapted density basis functions of A   symmetry.
 One-electron integrals computed using PRISM.
   1 Symmetry operations used in ECPInt.
 ECPInt:  NShTT=    2346 NPrTT=    6892 LenC2=    2330 LenP2D=    5877.
 LDataN:  DoStor=T MaxTD1= 6 Len=  172
 NBasis=   160 RedAO= T EigKep=  4.27D-04  NBF=   160
 NBsUse=   160 1.00D-06 EigRej= -1.00D+00 NBFU=   160
 NBasis=      160 NBas6D=      180 NTT=       12880   NTT6D=    16290
 NDBShl=      110 NDBF=        734 NDBF6D=      928  NNucDB=        0
 IDenFi=        2 ISolve=        0 FullAP=F BlkAPC=T NucTyp=        0
 TolInv= 1.00D-06 TolIt=  1.00D-10 IR12=0.
 FoFCou: FMM=F IPFlag=           0 FMFlag=           0 FMFlg1=           0
         NFxFlg=           0 DoJE=F BraDBF=T KetDBF=T FulRan=T
         wScrn=  0.000000 ICntrl=       600 IOpCl=  3 I1Cent=           6 NGrid=           0
         NMat0=    1 NMatS0=    928 NMatT0=    0 NMatD0=    1 NMtDS0=    0 NMtDT0=    0
 Petite list used in FoFCou.
 DBF EigKep=  1.17D-06 EigRej=  7.26D-07
 NDBF=    734  NBFD=   734
 NRank=   724 NBFDU=   724
 S*AI*S=  7.32259939789    
 ExpMin= 9.52D-02 ExpMax= 2.70D+04 ExpMxC= 9.22D+02 IAcc=3 IRadAn=         5 AccDes= 0.00D+00
 Harris functional with IExCor= 3630 and IRadAn=       5 diagonalized for initial guess.
 HarFok:  IExCor= 3630 AccDes= 0.00D+00 IRadAn=         5 IDoV= 1 UseB2=F ITyADJ=14
 ICtDFT=  3500011 ScaDFX=  1.000000  1.000000  1.000000  1.000000
 FoFCou: FMM=F IPFlag=           0 FMFlag=      100000 FMFlg1=           0
         NFxFlg=           0 DoJE=T BraDBF=F KetDBF=T FulRan=T
         wScrn=  0.000000 ICntrl=       500 IOpCl=  0 I1Cent=   200000004 NGrid=           0
         NMat0=    1 NMatS0=      1 NMatT0=    0 NMatD0=    1 NMtDS0=    0 NMtDT0=    0
 Petite list used in FoFCou.
 Requested convergence on RMS density matrix=1.00D-08 within 128 cycles.
 Requested convergence on MAX density matrix=1.00D-06.
 Requested convergence on             energy=1.00D-06.
 No special actions if energy rises.
 FoFCou: FMM=F IPFlag=           0 FMFlag=      100000 FMFlg1=           0
         NFxFlg=           0 DoJE=T BraDBF=T KetDBF=F FulRan=T
         wScrn=  0.000000 ICntrl=       500 IOpCl=  0 I1Cent=           5 NGrid=           0
         NMat0=    1 NMatS0=      1 NMatT0=    0 NMatD0=    1 NMtDS0=    0 NMtDT0=    0
 Symmetry not used in FoFCou.
 EnCoef did     4 forward-backward iterations
 EnCoef did     2 forward-backward iterations
 Initial convergence to 1.0D-05 achieved.  Increase integral accuracy.
 SCF Done:  E(RB97D3) =  -193.089283100     A.U. after   15 cycles
            NFock= 15  Conv=0.29D-08     -V/T= 2.0071

 **********************************************************************

            Population analysis using the SCF Density.

 **********************************************************************

 Orbital symmetries:
       Occupied  (A) (A) (A) (A) (A) (A) (A) (A) (A) (A) (A) (A)
                 (A) (A) (A) (A)
       Virtual   (A) (A) (A) (A) (A) (A) (A) (A) (A) (A) (A) (A)
                 (A) (A) (A) (A) (A) (A) (A) (A) (A) (A) (A) (A)
                 (A) (A) (A) (A) (A) (A) (A) (A) (A) (A) (A) (A)
                 (A) (A) (A) (A) (A) (A) (A) (A) (A) (A) (A) (A)
                 (A) (A) (A) (A) (A) (A) (A) (A) (A) (A) (A) (A)
                 (A) (A) (A) (A) (A) (A) (A) (A) (A) (A) (A) (A)
                 (A) (A) (A) (A) (A) (A) (A) (A) (A) (A) (A) (A)
                 (A) (A) (A) (A) (A) (A) (A) (A) (A) (A) (A) (A)
                 (A) (A) (A) (A) (A) (A) (A) (A) (A) (A) (A) (A)
                 (A) (A) (A) (A) (A) (A) (A) (A) (A) (A) (A) (A)
                 (A) (A) (A) (A) (A) (A) (A) (A) (A) (A) (A) (A)
                 (A) (A) (A) (A) (A) (A) (A) (A) (A) (A) (A) (A)
 The electronic state is 1-A.
 Alpha  occ. eigenvalues --  -18.75918 -10.01294  -9.92975  -9.91572  -0.93520
 Alpha  occ. eigenvalues --   -0.72022  -0.60286  -0.51159  -0.42397  -0.40110
 Alpha  occ. eigenvalues --   -0.39397  -0.35599  -0.34223  -0.33295  -0.30754
 Alpha  occ. eigenvalues --   -0.21883
 Alpha virt. eigenvalues --   -0.08576   0.01777   0.02878   0.05388   0.07513
 Alpha virt. eigenvalues --    0.08111   0.09797   0.12597   0.13245   0.16803
 Alpha virt. eigenvalues --    0.18693   0.20217   0.21370   0.22998   0.27929
 Alpha virt. eigenvalues --    0.29281   0.31507   0.33051   0.34775   0.35971
 Alpha virt. eigenvalues --    0.37338   0.38300   0.38832   0.40886   0.41610
 Alpha virt. eigenvalues --    0.44071   0.46274   0.48212   0.52895   0.56161
 Alpha virt. eigenvalues --    0.58613   0.60122   0.68905   0.75232   0.75601
 Alpha virt. eigenvalues --    0.77684   0.81015   0.87077   0.90874   0.93326
 Alpha virt. eigenvalues --    0.95917   0.99859   1.02337   1.03829   1.10118
 Alpha virt. eigenvalues --    1.11567   1.19090   1.35167   1.35579   1.41200
 Alpha virt. eigenvalues --    1.43331   1.43966   1.44915   1.48570   1.49594
 Alpha virt. eigenvalues --    1.50937   1.51939   1.59115   1.60303   1.66433
 Alpha virt. eigenvalues --    1.68471   1.69039   1.75919   1.77863   1.82492
 Alpha virt. eigenvalues --    1.87032   1.94156   1.99717   2.01315   2.04158
 Alpha virt. eigenvalues --    2.08256   2.12566   2.16754   2.20584   2.22527
 Alpha virt. eigenvalues --    2.25329   2.27624   2.33134   2.39758   2.42525
 Alpha virt. eigenvalues --    2.45215   2.46602   2.49895   2.52906   2.55337
 Alpha virt. eigenvalues --    2.58553   2.59907   2.67838   2.71927   2.76840
 Alpha virt. eigenvalues --    2.85442   2.87733   2.88823   2.90935   2.95369
 Alpha virt. eigenvalues --    2.97683   2.98591   3.04922   3.07356   3.08439
 Alpha virt. eigenvalues --    3.09964   3.14083   3.16392   3.19840   3.25233
 Alpha virt. eigenvalues --    3.30619   3.31294   3.36726   3.40127   3.43716
 Alpha virt. eigenvalues --    3.44664   3.55114   3.59973   3.66668   3.76535
 Alpha virt. eigenvalues --    3.77460   3.86253   3.87403   4.01196   4.04519
 Alpha virt. eigenvalues --    4.15349   4.23500   4.26337   4.33934   4.39248
 Alpha virt. eigenvalues --    4.44693   4.64064   4.66392   5.05207   5.05640
 Alpha virt. eigenvalues --    5.32838   5.41057   5.79440   5.99091   6.04441
 Alpha virt. eigenvalues --    6.18033   6.23796   6.63461   6.74790   6.82653
 Alpha virt. eigenvalues --   22.05393  22.11644  22.21488  43.44236
          Condensed to atoms (all electrons):
               1          2          3          4          5          6
     1  C    4.931155   0.398597   0.398228   0.393045   0.253756  -0.015913
     2  H    0.398597   0.574240  -0.026669  -0.023689  -0.037161   0.006459
     3  H    0.398228  -0.026669   0.574044  -0.025216  -0.043007  -0.003455
     4  H    0.393045  -0.023689  -0.025216   0.562734  -0.020928  -0.003794
     5  C    0.253756  -0.037161  -0.043007  -0.020928   5.294773   0.336411
     6  H   -0.015913   0.006459  -0.003455  -0.003794   0.336411   0.572232
     7  H   -0.034406  -0.004397   0.008451  -0.006397   0.344227  -0.017726
     8  C   -0.007667  -0.002820  -0.000807   0.004623   0.252656  -0.007452
     9  O    0.007860  -0.000063   0.000837  -0.000356  -0.123804   0.011558
    10  H    0.024329   0.005560   0.001939  -0.000874  -0.178887   0.011418
               7          8          9         10
     1  C   -0.034406  -0.007667   0.007860   0.024329
     2  H   -0.004397  -0.002820  -0.000063   0.005560
     3  H    0.008451  -0.000807   0.000837   0.001939
     4  H   -0.006397   0.004623  -0.000356  -0.000874
     5  C    0.344227   0.252656  -0.123804  -0.178887
     6  H   -0.017726  -0.007452   0.011558   0.011418
     7  H    0.609572  -0.013611   0.002333   0.007897
     8  C   -0.013611   4.673188   0.623045   0.367033
     9  O    0.002333   0.623045   7.828248  -0.052610
    10  H    0.007897   0.367033  -0.052610   0.762706
 Mulliken charges:
               1
     1  C   -0.348984
     2  H    0.109943
     3  H    0.115653
     4  H    0.120851
     5  C   -0.078037
     6  H    0.110264
     7  H    0.104057
     8  C    0.111812
     9  O   -0.297048
    10  H    0.051488
 Sum of Mulliken charges =  -0.00000
 Mulliken charges with hydrogens summed into heavy atoms:
               1
     1  C   -0.002536
     5  C    0.136284
     8  C    0.163300
     9  O   -0.297048
 Electronic spatial extent (au):  <R**2>=            351.7507
 Charge=             -0.0000 electrons
 Dipole moment (field-independent basis, Debye):
    X=             -2.9407    Y=              0.2424    Z=              0.6804  Tot=              3.0281
 Quadrupole moment (field-independent basis, Debye-Ang):
   XX=            -31.2499   YY=            -24.6060   ZZ=            -24.6750
   XY=              0.7730   XZ=              0.8423   YZ=              0.0427
 Traceless Quadrupole moment (field-independent basis, Debye-Ang):
   XX=             -4.4063   YY=              2.2376   ZZ=              2.1687
   XY=              0.7730   XZ=              0.8423   YZ=              0.0427
 Octapole moment (field-independent basis, Debye-Ang**2):
  XXX=             -8.3963  YYY=             -1.0526  ZZZ=             -0.5771  XYY=              1.5316
  XXY=             -0.8132  XXZ=              1.4129  XZZ=              1.7496  YZZ=             -0.5463
  YYZ=              0.1459  XYZ=             -0.0256
 Hexadecapole moment (field-independent basis, Debye-Ang**3):
 XXXX=           -363.5774 YYYY=            -72.9518 ZZZZ=            -44.4043 XXXY=              1.9596
 XXXZ=              0.7445 YYYX=              0.1532 YYYZ=              1.6991 ZZZX=             -1.0163
 ZZZY=             -1.7146 XXYY=            -68.9175 XXZZ=            -64.1794 YYZZ=            -19.1125
 XXYZ=             -0.1464 YYXZ=             -0.8275 ZZXY=             -0.7114
 N-N= 1.133331940406D+02 E-N=-6.771680309412D+02  KE= 1.917354540255D+02
   1 Symmetry operations used in ECPInt.
 ECPInt:  NShTT=    2346 NPrTT=    6892 LenC2=    2330 LenP2D=    5877.
 LDataN:  DoStor=T MaxTD1= 7 Len=  274
 Calling FoFJK, ICntrl=      2527 FMM=F ISym2X=0 I1Cent= 4 IOpClX= 0 NMat=1 NMatS=1 NMatT=0.
 ***** Axes restored to original set *****
 -------------------------------------------------------------------
 Center     Atomic                   Forces (Hartrees/Bohr)
 Number     Number              X              Y              Z
 -------------------------------------------------------------------
      1        6          -0.003356691   -0.004199305   -0.004606187
      2        1          -0.001500763    0.004567203   -0.004384244
      3        1          -0.001521450    0.003805554    0.007504825
      4        1          -0.000260034    0.000450894    0.000987058
      5        6          -0.001892671    0.000329043    0.007908345
      6        1           0.003387329   -0.009388230    0.006189537
      7        1           0.000463108   -0.005333122   -0.009541292
      8        6          -0.055563278    0.005938687   -0.012425999
      9        8           0.075171467   -0.039375337    0.031983593
     10        1          -0.014927017    0.043204613   -0.023615638
 -------------------------------------------------------------------
 Cartesian Forces:  Max     0.075171467 RMS     0.022089881

 GradGradGradGradGradGradGradGradGradGradGradGradGradGradGradGradGradGrad
 Berny optimization.
 FormGI is forming the generalized inverse of G from B-inverse, IUseBI=4.
 Internal  Forces:  Max     0.089751805 RMS     0.017318357
 Search for a local minimum.
 Step number   1 out of a maximum of   49
 All quantities printed in internal units (Hartrees-Bohrs-Radians)
 Mixed Optimization -- RFO/linear search
 Second derivative matrix not updated -- first step.
 ITU=  0
     Eigenvalues ---    0.00230   0.00451   0.00457   0.03665   0.05128
     Eigenvalues ---    0.05344   0.05428   0.09779   0.13044   0.16000
     Eigenvalues ---    0.16000   0.16000   0.16000   0.21160   0.21928
     Eigenvalues ---    0.22002   0.28169   0.30003   0.31221   0.32295
     Eigenvalues ---    0.32623   0.33002   0.34353   0.74115
 RFO step:  Lambda=-2.54214789D-02 EMin= 2.30000000D-03
 Linear search not attempted -- first point.
 Iteration  1 RMS(Cart)=  0.04808644 RMS(Int)=  0.00285949
 Iteration  2 RMS(Cart)=  0.00257116 RMS(Int)=  0.00004732
 Iteration  3 RMS(Cart)=  0.00000507 RMS(Int)=  0.00004713
 Iteration  4 RMS(Cart)=  0.00000000 RMS(Int)=  0.00004713
 Variable       Old X    -DE/DX   Delta X   Delta X   Delta X     New X
                                 (Linear)    (Quad)   (Total)
    R1        2.09048  -0.00648   0.00000  -0.01823  -0.01823   2.07225
    R2        2.09718  -0.00843   0.00000  -0.02396  -0.02396   2.07322
    R3        2.06738   0.00008   0.00000   0.00023   0.00023   2.06761
    R4        2.91770  -0.00791   0.00000  -0.02574  -0.02574   2.89196
    R5        2.10307  -0.01148   0.00000  -0.03296  -0.03296   2.07010
    R6        2.12292  -0.01090   0.00000  -0.03229  -0.03229   2.09063
    R7        2.87958  -0.00986   0.00000  -0.03029  -0.03029   2.84928
    R8        2.41254  -0.08975   0.00000  -0.11708  -0.11708   2.29546
    R9        2.36810  -0.05107   0.00000  -0.21548  -0.21548   2.15262
    A1        1.88151   0.00077   0.00000   0.00232   0.00229   1.88380
    A2        1.88470   0.00038   0.00000   0.00112   0.00111   1.88581
    A3        1.94264  -0.00063   0.00000  -0.00487  -0.00489   1.93775
    A4        1.86955   0.00144   0.00000   0.01059   0.01060   1.88015
    A5        1.94779  -0.00141   0.00000  -0.00714  -0.00716   1.94064
    A6        1.93458  -0.00040   0.00000  -0.00113  -0.00113   1.93344
    A7        1.99654  -0.00189   0.00000  -0.01768  -0.01773   1.97881
    A8        1.90410  -0.00002   0.00000   0.00334   0.00334   1.90744
    A9        1.99250   0.00005   0.00000  -0.00123  -0.00131   1.99119
   A10        1.84762   0.00089   0.00000   0.00930   0.00931   1.85694
   A11        1.88929   0.00049   0.00000  -0.00147  -0.00160   1.88769
   A12        1.82008   0.00078   0.00000   0.01135   0.01133   1.83142
   A13        2.10396   0.01597   0.00000   0.06528   0.06516   2.16912
   A14        1.99768  -0.00058   0.00000   0.00769   0.00756   2.00525
   A15        2.18077  -0.01535   0.00000  -0.07192  -0.07205   2.10873
    D1        3.12711   0.00036   0.00000   0.00866   0.00861   3.13572
    D2        1.06183   0.00045   0.00000   0.00578   0.00579   1.06761
    D3       -0.96620  -0.00055   0.00000  -0.00993  -0.00990  -0.97610
    D4       -1.05316  -0.00005   0.00000   0.00337   0.00333  -1.04982
    D5       -3.11844   0.00003   0.00000   0.00049   0.00051  -3.11792
    D6        1.13672  -0.00097   0.00000  -0.01522  -0.01518   1.12154
    D7        1.02912   0.00057   0.00000   0.01126   0.01122   1.04034
    D8       -1.03616   0.00066   0.00000   0.00839   0.00839  -1.02777
    D9       -3.06419  -0.00034   0.00000  -0.00733  -0.00729  -3.07148
   D10       -2.58579   0.00144   0.00000   0.03048   0.03050  -2.55529
   D11        0.59575   0.00062   0.00000   0.00494   0.00495   0.60070
   D12       -0.34045  -0.00065   0.00000   0.00450   0.00448  -0.33597
   D13        2.84109  -0.00146   0.00000  -0.02104  -0.02106   2.82003
   D14        1.62112   0.00092   0.00000   0.01965   0.01965   1.64077
   D15       -1.48053   0.00011   0.00000  -0.00589  -0.00589  -1.48642
         Item               Value     Threshold  Converged?
 Maximum Force            0.089752     0.000450     NO 
 RMS     Force            0.017318     0.000300     NO 
 Maximum Displacement     0.193441     0.001800     NO 
 RMS     Displacement     0.049725     0.001200     NO 
 Predicted change in Energy=-1.369669D-02
 GradGradGradGradGradGradGradGradGradGradGradGradGradGradGradGradGradGrad

                          Input orientation:                          
 ---------------------------------------------------------------------
 Center     Atomic      Atomic             Coordinates (Angstroms)
 Number     Number       Type             X           Y           Z
 ---------------------------------------------------------------------
      1          6           0        1.765596   -0.210475   -0.117948
      2          1           0        1.933175   -0.955766    0.668794
      3          1           0        1.758040   -0.733270   -1.082450
      4          1           0        2.615730    0.478287   -0.119052
      5          6           0        0.454873    0.545290    0.111895
      6          1           0        0.251876    1.305249   -0.650513
      7          1           0        0.505831    1.079406    1.079390
      8          6           0       -0.757253   -0.344572    0.222726
      9          8           0       -1.867185   -0.040371   -0.165886
     10          1           0       -0.569419   -1.350517    0.723112
 ---------------------------------------------------------------------
                    Distance matrix (angstroms):
                    1          2          3          4          5
     1  C    0.000000
     2  H    1.096588   0.000000
     3  H    1.097103   1.773988   0.000000
     4  H    1.094131   1.772877   1.769643   0.000000
     5  C    1.530360   2.179147   2.181609   2.174196   0.000000
     6  H    2.207350   3.111194   2.571121   2.560103   1.095451
     7  H    2.164353   2.519490   3.086645   2.499857   1.106311
     8  C    2.549276   2.794806   2.860292   3.488686   1.507776
     9  O    3.637078   3.997171   3.802954   4.513062   2.410833
    10  H    2.731186   2.534119   3.009671   3.768149   2.239832
                    6          7          8          9         10
     6  H    0.000000
     7  H    1.762971   0.000000
     8  C    2.121980   2.087335   0.000000
     9  O    2.556556   2.904448   1.214704   0.000000
    10  H    3.100721   2.680974   1.139120   2.047193   0.000000
 Stoichiometry    C3H6O
 Framework group  C1[X(C3H6O)]
 Deg. of freedom    24
 Full point group                 C1      NOp   1
 Largest Abelian subgroup         C1      NOp   1
 Largest concise Abelian subgroup C1      NOp   1
                         Standard orientation:                         
 ---------------------------------------------------------------------
 Center     Atomic      Atomic             Coordinates (Angstroms)
 Number     Number       Type             X           Y           Z
 ---------------------------------------------------------------------
      1          6           0       -1.751535    0.217838   -0.144223
      2          1           0       -1.897598    1.035313    0.571951
      3          1           0       -1.739938    0.650096   -1.152515
      4          1           0       -2.616027   -0.449523   -0.077831
      5          6           0       -0.455448   -0.542070    0.146809
      6          1           0       -0.274108   -1.372697   -0.543980
      7          1           0       -0.510654   -0.984384    1.159348
      8          6           0        0.775994    0.327659    0.169374
      9          8           0        1.876394   -0.034787   -0.195675
     10          1           0        0.613111    1.378932    0.576669
 ---------------------------------------------------------------------
 Rotational constants (GHZ):          29.6974650           4.1576567           3.9370293
 Standard basis: def2TZVP (5D, 7F)
 There are   180 symmetry adapted cartesian basis functions of A   symmetry.
 There are   160 symmetry adapted basis functions of A   symmetry.
   160 basis functions,   252 primitive gaussians,   180 cartesian basis functions
    16 alpha electrons       16 beta electrons
       nuclear repulsion energy       115.8218913572 Hartrees.
 NAtoms=   10 NActive=   10 NUniq=   10 SFac= 1.00D+00 NAtFMM=   60 NAOKFM=F Big=F
 Integral buffers will be    131072 words long.
 Raffenetti 2 integral format.
 Two-electron integral symmetry is turned on.
 Nuclear repulsion after empirical dispersion term =      115.8041767728 Hartrees.
 Standard density basis: Auto (5D, 7F)
   734 Density fitting functions
 There are   734 symmetry adapted density basis functions of A   symmetry.
 One-electron integrals computed using PRISM.
   1 Symmetry operations used in ECPInt.
 ECPInt:  NShTT=    2346 NPrTT=    6892 LenC2=    2332 LenP2D=    5899.
 LDataN:  DoStor=T MaxTD1= 6 Len=  172
 NBasis=   160 RedAO= T EigKep=  3.85D-04  NBF=   160
 NBsUse=   160 1.00D-06 EigRej= -1.00D+00 NBFU=   160
 NBasis=      160 NBas6D=      180 NTT=       12880   NTT6D=    16290
 NDBShl=      110 NDBF=        734 NDBF6D=      928  NNucDB=        0
 IDenFi=        2 ISolve=        0 FullAP=F BlkAPC=T NucTyp=        0
 TolInv= 1.00D-06 TolIt=  1.00D-10 IR12=0.
 FoFCou: FMM=F IPFlag=           0 FMFlag=           0 FMFlg1=           0
         NFxFlg=           0 DoJE=F BraDBF=T KetDBF=T FulRan=T
         wScrn=  0.000000 ICntrl=       600 IOpCl=  3 I1Cent=           6 NGrid=           0
         NMat0=    1 NMatS0=    928 NMatT0=    0 NMatD0=    1 NMtDS0=    0 NMtDT0=    0
 Petite list used in FoFCou.
 DBF EigKep=  1.62D-06 EigRej=  7.36D-07
 NDBF=    734  NBFD=   734
 NRank=   723 NBFDU=   723
 S*AI*S=  7.27280060631    
 Initial guess from the checkpoint file:  "/home/monty/scratch/Gau-138845.chk"
 B after Tr=    -0.000000   -0.000000   -0.000000
         Rot=    0.999420   -0.033804   -0.000438    0.004156 Ang=  -3.90 deg.
 Recovered     1 saved fitting vectors from chk file.
 ExpMin= 9.52D-02 ExpMax= 2.70D+04 ExpMxC= 9.22D+02 IAcc=3 IRadAn=         5 AccDes= 0.00D+00
 Harris functional with IExCor= 3630 and IRadAn=       5 diagonalized for initial guess.
 HarFok:  IExCor= 3630 AccDes= 0.00D+00 IRadAn=         5 IDoV= 1 UseB2=F ITyADJ=14
 ICtDFT=  3500011 ScaDFX=  1.000000  1.000000  1.000000  1.000000
 FoFCou: FMM=F IPFlag=           0 FMFlag=      100000 FMFlg1=           0
         NFxFlg=           0 DoJE=T BraDBF=F KetDBF=T FulRan=T
         wScrn=  0.000000 ICntrl=       500 IOpCl=  0 I1Cent=   200000004 NGrid=           0
         NMat0=    1 NMatS0=      1 NMatT0=    0 NMatD0=    1 NMtDS0=    0 NMtDT0=    0
 Petite list used in FoFCou.
 Requested convergence on RMS density matrix=1.00D-08 within 128 cycles.
 Requested convergence on MAX density matrix=1.00D-06.
 Requested convergence on             energy=1.00D-06.
 No special actions if energy rises.
 FoFCou: FMM=F IPFlag=           0 FMFlag=      100000 FMFlg1=           0
         NFxFlg=           0 DoJE=T BraDBF=T KetDBF=F FulRan=T
         wScrn=  0.000000 ICntrl=       500 IOpCl=  0 I1Cent=           5 NGrid=           0
         NMat0=    1 NMatS0=      1 NMatT0=    0 NMatD0=    1 NMtDS0=    0 NMtDT0=    0
 Symmetry not used in FoFCou.
 Initial convergence to 1.0D-05 achieved.  Increase integral accuracy.
 SCF Done:  E(RB97D3) =  -193.104674069     A.U. after   12 cycles
            NFock= 12  Conv=0.52D-08     -V/T= 2.0049
   1 Symmetry operations used in ECPInt.
 ECPInt:  NShTT=    2346 NPrTT=    6892 LenC2=    2332 LenP2D=    5899.
 LDataN:  DoStor=T MaxTD1= 7 Len=  274
 Calling FoFJK, ICntrl=      2527 FMM=F ISym2X=0 I1Cent= 4 IOpClX= 0 NMat=1 NMatS=1 NMatT=0.
 ***** Axes restored to original set *****
 -------------------------------------------------------------------
 Center     Atomic                   Forces (Hartrees/Bohr)
 Number     Number              X              Y              Z
 -------------------------------------------------------------------
      1        6          -0.000377433   -0.000852161   -0.001930650
      2        1           0.000245234    0.000241677   -0.000357244
      3        1          -0.000101726    0.000224482    0.000829340
      4        1           0.000065477   -0.000107133    0.000411381
      5        6           0.000191952    0.002576663    0.004265591
      6        1           0.001062383   -0.000415504   -0.000338419
      7        1           0.000624765   -0.000511161   -0.001621923
      8        6          -0.006949298   -0.005247380   -0.000916386
      9        8           0.007284649   -0.004202951    0.003296877
     10        1          -0.002046003    0.008293467   -0.003638568
 -------------------------------------------------------------------
 Cartesian Forces:  Max     0.008293467 RMS     0.003054067

 GradGradGradGradGradGradGradGradGradGradGradGradGradGradGradGradGradGrad
 Berny optimization.
 Using GEDIIS/GDIIS optimizer.
 FormGI is forming the generalized inverse of G from B-inverse, IUseBI=4.
 Internal  Forces:  Max     0.009259807 RMS     0.002230355
 Search for a local minimum.
 Step number   2 out of a maximum of   49
 All quantities printed in internal units (Hartrees-Bohrs-Radians)
 Mixed Optimization -- RFO/linear search
 Update second derivatives using D2CorX and points    1    2
 DE= -1.54D-02 DEPred=-1.37D-02 R= 1.12D+00
 TightC=F SS=  1.41D+00  RLast= 2.78D-01 DXNew= 5.0454D-01 8.3530D-01
 Trust test= 1.12D+00 RLast= 2.78D-01 DXMaxT set to 5.05D-01
 ITU=  1  0
 Use linear search instead of GDIIS.
     Eigenvalues ---    0.00230   0.00451   0.00453   0.03736   0.05139
     Eigenvalues ---    0.05413   0.05452   0.09704   0.12997   0.15993
     Eigenvalues ---    0.16000   0.16000   0.16094   0.19991   0.21903
     Eigenvalues ---    0.22080   0.28236   0.30271   0.31194   0.32397
     Eigenvalues ---    0.32638   0.33026   0.34353   0.71958
 RFO step:  Lambda=-3.20247794D-04 EMin= 2.29999034D-03
 Quartic linear search produced a step of  0.12015.
 Iteration  1 RMS(Cart)=  0.02611615 RMS(Int)=  0.00135571
 Iteration  2 RMS(Cart)=  0.00108641 RMS(Int)=  0.00059014
 Iteration  3 RMS(Cart)=  0.00000109 RMS(Int)=  0.00059014
 Iteration  4 RMS(Cart)=  0.00000000 RMS(Int)=  0.00059014
 Variable       Old X    -DE/DX   Delta X   Delta X   Delta X     New X
                                 (Linear)    (Quad)   (Total)
    R1        2.07225  -0.00038  -0.00219   0.00138  -0.00081   2.07144
    R2        2.07322  -0.00084  -0.00288   0.00066  -0.00222   2.07101
    R3        2.06761  -0.00002   0.00003  -0.00009  -0.00006   2.06755
    R4        2.89196   0.00026  -0.00309   0.00498   0.00188   2.89385
    R5        2.07010  -0.00025  -0.00396   0.00400   0.00004   2.07014
    R6        2.09063  -0.00164  -0.00388  -0.00105  -0.00493   2.08569
    R7        2.84928   0.00197  -0.00364   0.01190   0.00826   2.85754
    R8        2.29546  -0.00876  -0.01407   0.00129  -0.01278   2.28268
    R9        2.15262  -0.00926  -0.02589  -0.01241  -0.03830   2.11432
    A1        1.88380  -0.00018   0.00027  -0.00146  -0.00119   1.88261
    A2        1.88581  -0.00033   0.00013  -0.00362  -0.00348   1.88232
    A3        1.93775   0.00035  -0.00059   0.00296   0.00237   1.94012
    A4        1.88015   0.00017   0.00127  -0.00001   0.00127   1.88141
    A5        1.94064  -0.00006  -0.00086   0.00155   0.00068   1.94132
    A6        1.93344   0.00003  -0.00014   0.00031   0.00017   1.93361
    A7        1.97881  -0.00074  -0.00213  -0.00895  -0.01110   1.96771
    A8        1.90744   0.00040   0.00040   0.00287   0.00331   1.91075
    A9        1.99119  -0.00177  -0.00016  -0.00909  -0.00929   1.98190
   A10        1.85694  -0.00001   0.00112   0.00047   0.00155   1.85849
   A11        1.88769   0.00127  -0.00019   0.00649   0.00617   1.89387
   A12        1.83142   0.00109   0.00136   0.01027   0.01163   1.84304
   A13        2.16912   0.00304   0.00783   0.00420   0.00992   2.17904
   A14        2.00525  -0.00107   0.00091  -0.00729  -0.00850   1.99674
   A15        2.10873  -0.00197  -0.00866   0.00153  -0.00926   2.09947
    D1        3.13572   0.00002   0.00103   0.00676   0.00775  -3.13972
    D2        1.06761   0.00023   0.00070   0.00987   0.01057   1.07818
    D3       -0.97610  -0.00031  -0.00119   0.00063  -0.00052  -0.97663
    D4       -1.04982  -0.00001   0.00040   0.00794   0.00830  -1.04152
    D5       -3.11792   0.00020   0.00006   0.01105   0.01111  -3.10681
    D6        1.12154  -0.00034  -0.00182   0.00181   0.00003   1.12157
    D7        1.04034   0.00019   0.00135   0.00915   0.01046   1.05079
    D8       -1.02777   0.00039   0.00101   0.01226   0.01327  -1.01450
    D9       -3.07148  -0.00015  -0.00088   0.00302   0.00218  -3.06930
   D10       -2.55529   0.00063   0.00366  -0.01642  -0.01266  -2.56796
   D11        0.60070   0.00084   0.00060   0.10778   0.10830   0.70900
   D12       -0.33597  -0.00064   0.00054  -0.02987  -0.02930  -0.36526
   D13        2.82003  -0.00043  -0.00253   0.09433   0.09167   2.91170
   D14        1.64077   0.00041   0.00236  -0.02169  -0.01921   1.62156
   D15       -1.48642   0.00062  -0.00071   0.10251   0.10175  -1.38467
         Item               Value     Threshold  Converged?
 Maximum Force            0.009260     0.000450     NO 
 RMS     Force            0.002230     0.000300     NO 
 Maximum Displacement     0.089242     0.001800     NO 
 RMS     Displacement     0.026008     0.001200     NO 
 Predicted change in Energy=-4.148123D-04
 GradGradGradGradGradGradGradGradGradGradGradGradGradGradGradGradGradGrad

                          Input orientation:                          
 ---------------------------------------------------------------------
 Center     Atomic      Atomic             Coordinates (Angstroms)
 Number     Number       Type             X           Y           Z
 ---------------------------------------------------------------------
      1          6           0        1.765964   -0.210158   -0.123569
      2          1           0        1.930705   -0.969874    0.649252
      3          1           0        1.763485   -0.715059   -1.096261
      4          1           0        2.617394    0.476713   -0.105506
      5          6           0        0.454281    0.543833    0.113161
      6          1           0        0.262784    1.309359   -0.646681
      7          1           0        0.501792    1.069631    1.082406
      8          6           0       -0.755055   -0.359832    0.199646
      9          8           0       -1.865539   -0.064384   -0.172718
     10          1           0       -0.584549   -1.306970    0.770337
 ---------------------------------------------------------------------
                    Distance matrix (angstroms):
                    1          2          3          4          5
     1  C    0.000000
     2  H    1.096157   0.000000
     3  H    1.095930   1.771922   0.000000
     4  H    1.094098   1.770259   1.769485   0.000000
     5  C    1.531357   2.181406   2.182092   2.175173   0.000000
     6  H    2.200483   3.107459   2.559784   2.555457   1.095472
     7  H    2.165725   2.527646   3.086029   2.497690   1.103701
     8  C    2.546057   2.790628   2.854576   3.488028   1.512146
     9  O    3.634760   3.988360   3.800806   4.515971   2.415206
    10  H    2.743533   2.540629   3.057419   3.768430   2.221828
                    6          7          8          9         10
     6  H    0.000000
     7  H    1.761912   0.000000
     8  C    2.130367   2.098165   0.000000
     9  O    2.577124   2.909567   1.207940   0.000000
    10  H    3.093717   2.631682   1.118852   2.018492   0.000000
 Stoichiometry    C3H6O
 Framework group  C1[X(C3H6O)]
 Deg. of freedom    24
 Full point group                 C1      NOp   1
 Largest Abelian subgroup         C1      NOp   1
 Largest concise Abelian subgroup C1      NOp   1
                         Standard orientation:                         
 ---------------------------------------------------------------------
 Center     Atomic      Atomic             Coordinates (Angstroms)
 Number     Number       Type             X           Y           Z
 ---------------------------------------------------------------------
      1          6           0       -1.749564    0.223631   -0.144814
      2          1           0       -1.887756    1.050004    0.561990
      3          1           0       -1.738638    0.644804   -1.156523
      4          1           0       -2.620158   -0.434310   -0.065875
      5          6           0       -0.458544   -0.545555    0.149589
      6          1           0       -0.293694   -1.377401   -0.543892
      7          1           0       -0.515102   -0.986525    1.159789
      8          6           0        0.776645    0.326718    0.155261
      9          8           0        1.875915   -0.031037   -0.195078
     10          1           0        0.636806    1.322969    0.644913
 ---------------------------------------------------------------------
 Rotational constants (GHZ):          29.7454112           4.1580099           3.9398652
 Standard basis: def2TZVP (5D, 7F)
 There are   180 symmetry adapted cartesian basis functions of A   symmetry.
 There are   160 symmetry adapted basis functions of A   symmetry.
   160 basis functions,   252 primitive gaussians,   180 cartesian basis functions
    16 alpha electrons       16 beta electrons
       nuclear repulsion energy       115.9672207683 Hartrees.
 NAtoms=   10 NActive=   10 NUniq=   10 SFac= 1.00D+00 NAtFMM=   60 NAOKFM=F Big=F
 Integral buffers will be    131072 words long.
 Raffenetti 2 integral format.
 Two-electron integral symmetry is turned on.
 Nuclear repulsion after empirical dispersion term =      115.9495050781 Hartrees.
 Standard density basis: Auto (5D, 7F)
   734 Density fitting functions
 There are   734 symmetry adapted density basis functions of A   symmetry.
 One-electron integrals computed using PRISM.
   1 Symmetry operations used in ECPInt.
 ECPInt:  NShTT=    2346 NPrTT=    6892 LenC2=    2332 LenP2D=    5899.
 LDataN:  DoStor=T MaxTD1= 6 Len=  172
 NBasis=   160 RedAO= T EigKep=  3.88D-04  NBF=   160
 NBsUse=   160 1.00D-06 EigRej= -1.00D+00 NBFU=   160
 NBasis=      160 NBas6D=      180 NTT=       12880   NTT6D=    16290
 NDBShl=      110 NDBF=        734 NDBF6D=      928  NNucDB=        0
 IDenFi=        2 ISolve=        0 FullAP=F BlkAPC=T NucTyp=        0
 TolInv= 1.00D-06 TolIt=  1.00D-10 IR12=0.
 FoFCou: FMM=F IPFlag=           0 FMFlag=           0 FMFlg1=           0
         NFxFlg=           0 DoJE=F BraDBF=T KetDBF=T FulRan=T
         wScrn=  0.000000 ICntrl=       600 IOpCl=  3 I1Cent=           6 NGrid=           0
         NMat0=    1 NMatS0=    928 NMatT0=    0 NMatD0=    1 NMtDS0=    0 NMtDT0=    0
 Petite list used in FoFCou.
 DBF EigKep=  1.59D-06 EigRej=  7.50D-07
 NDBF=    734  NBFD=   734
 NRank=   723 NBFDU=   723
 S*AI*S=  7.26854980135    
 Initial guess from the checkpoint file:  "/home/monty/scratch/Gau-138845.chk"
 B after Tr=     0.000000    0.000000    0.000000
         Rot=    0.999996   -0.002642   -0.000304    0.001210 Ang=  -0.33 deg.
 Recovered     1 saved fitting vectors from chk file.
 ExpMin= 9.52D-02 ExpMax= 2.70D+04 ExpMxC= 9.22D+02 IAcc=3 IRadAn=         5 AccDes= 0.00D+00
 Harris functional with IExCor= 3630 and IRadAn=       5 diagonalized for initial guess.
 HarFok:  IExCor= 3630 AccDes= 0.00D+00 IRadAn=         5 IDoV= 1 UseB2=F ITyADJ=14
 ICtDFT=  3500011 ScaDFX=  1.000000  1.000000  1.000000  1.000000
 FoFCou: FMM=F IPFlag=           0 FMFlag=      100000 FMFlg1=           0
         NFxFlg=           0 DoJE=T BraDBF=F KetDBF=T FulRan=T
         wScrn=  0.000000 ICntrl=       500 IOpCl=  0 I1Cent=   200000004 NGrid=           0
         NMat0=    1 NMatS0=      1 NMatT0=    0 NMatD0=    1 NMtDS0=    0 NMtDT0=    0
 Petite list used in FoFCou.
 Requested convergence on RMS density matrix=1.00D-08 within 128 cycles.
 Requested convergence on MAX density matrix=1.00D-06.
 Requested convergence on             energy=1.00D-06.
 No special actions if energy rises.
 FoFCou: FMM=F IPFlag=           0 FMFlag=      100000 FMFlg1=           0
         NFxFlg=           0 DoJE=T BraDBF=T KetDBF=F FulRan=T
         wScrn=  0.000000 ICntrl=       500 IOpCl=  0 I1Cent=           5 NGrid=           0
         NMat0=    1 NMatS0=      1 NMatT0=    0 NMatD0=    1 NMtDS0=    0 NMtDT0=    0
 Symmetry not used in FoFCou.
 Initial convergence to 1.0D-05 achieved.  Increase integral accuracy.
 SCF Done:  E(RB97D3) =  -193.104511436     A.U. after   11 cycles
            NFock= 11  Conv=0.48D-08     -V/T= 2.0046
   1 Symmetry operations used in ECPInt.
 ECPInt:  NShTT=    2346 NPrTT=    6892 LenC2=    2332 LenP2D=    5899.
 LDataN:  DoStor=T MaxTD1= 7 Len=  274
 Calling FoFJK, ICntrl=      2527 FMM=F ISym2X=0 I1Cent= 4 IOpClX= 0 NMat=1 NMatS=1 NMatT=0.
 ***** Axes restored to original set *****
 -------------------------------------------------------------------
 Center     Atomic                   Forces (Hartrees/Bohr)
 Number     Number              X              Y              Z
 -------------------------------------------------------------------
      1        6           0.000259763    0.000008904   -0.000862296
      2        1           0.000035675   -0.000030072    0.000016650
      3        1          -0.000149488    0.000074656    0.000180199
      4        1           0.000193307   -0.000071300    0.000191420
      5        6           0.000686339   -0.000093385   -0.002538413
      6        1           0.000559722   -0.000193663   -0.000316793
      7        1          -0.000432822   -0.001088232   -0.000269426
      8        6          -0.000989901    0.006093875    0.011625756
      9        8          -0.001489816   -0.001609898   -0.005147525
     10        1           0.001327221   -0.003090886   -0.002879574
 -------------------------------------------------------------------
 Cartesian Forces:  Max     0.011625756 RMS     0.002792612

 GradGradGradGradGradGradGradGradGradGradGradGradGradGradGradGradGradGrad
 Berny optimization.
 Using GEDIIS/GDIIS optimizer.
 FormGI is forming the generalized inverse of G from B-inverse, IUseBI=4.
 Internal  Forces:  Max     0.003288818 RMS     0.001275530
 Search for a local minimum.
 Step number   3 out of a maximum of   49
 All quantities printed in internal units (Hartrees-Bohrs-Radians)
 Mixed Optimization -- RFO/linear search
 Update second derivatives using D2CorX and points    1    3    2
 DE=  1.63D-04 DEPred=-4.15D-04 R=-3.92D-01
 Trust test=-3.92D-01 RLast= 1.87D-01 DXMaxT set to 2.52D-01
 ITU= -1  1  0
 Use linear search instead of GDIIS.
     Eigenvalues ---    0.00229   0.00376   0.01971   0.03950   0.05198
     Eigenvalues ---    0.05398   0.05441   0.09289   0.12407   0.15815
     Eigenvalues ---    0.16000   0.16008   0.16056   0.18011   0.22064
     Eigenvalues ---    0.22159   0.28257   0.29841   0.31143   0.32389
     Eigenvalues ---    0.32636   0.33034   0.34354   0.70658
 RFO step:  Lambda=-1.53024663D-03 EMin= 2.28521658D-03
 Quartic linear search produced a step of -0.58900.
 Iteration  1 RMS(Cart)=  0.05025592 RMS(Int)=  0.00484462
 Iteration  2 RMS(Cart)=  0.00445131 RMS(Int)=  0.00208873
 Iteration  3 RMS(Cart)=  0.00001107 RMS(Int)=  0.00208869
 Iteration  4 RMS(Cart)=  0.00000003 RMS(Int)=  0.00208869
 Variable       Old X    -DE/DX   Delta X   Delta X   Delta X     New X
                                 (Linear)    (Quad)   (Total)
    R1        2.07144   0.00004   0.00048  -0.00174  -0.00126   2.07017
    R2        2.07101  -0.00019   0.00131  -0.00535  -0.00404   2.06697
    R3        2.06755   0.00011   0.00004  -0.00002   0.00002   2.06757
    R4        2.89385   0.00037  -0.00111   0.00519   0.00408   2.89793
    R5        2.07014  -0.00001  -0.00002   0.00035   0.00032   2.07046
    R6        2.08569  -0.00077   0.00291  -0.01257  -0.00967   2.07602
    R7        2.85754   0.00029  -0.00486   0.02033   0.01547   2.87301
    R8        2.28268   0.00256   0.00753  -0.02701  -0.01948   2.26320
    R9        2.11432   0.00135   0.02256  -0.08894  -0.06638   2.04794
    A1        1.88261   0.00004   0.00070  -0.00321  -0.00251   1.88010
    A2        1.88232  -0.00016   0.00205  -0.00882  -0.00677   1.87555
    A3        1.94012   0.00000  -0.00140   0.00526   0.00386   1.94398
    A4        1.88141   0.00007  -0.00075   0.00396   0.00321   1.88462
    A5        1.94132  -0.00021  -0.00040   0.00107   0.00067   1.94199
    A6        1.93361   0.00025  -0.00010   0.00131   0.00120   1.93482
    A7        1.96771  -0.00073   0.00654  -0.02932  -0.02281   1.94491
    A8        1.91075   0.00042  -0.00195   0.00933   0.00750   1.91825
    A9        1.98190   0.00006   0.00547  -0.02273  -0.01734   1.96457
   A10        1.85849   0.00036  -0.00091   0.00661   0.00560   1.86408
   A11        1.89387   0.00058  -0.00364   0.01597   0.01198   1.90585
   A12        1.84304  -0.00067  -0.00685   0.02548   0.01863   1.86167
   A13        2.17904   0.00091  -0.00584   0.03483   0.02149   2.20053
   A14        1.99674  -0.00004   0.00501  -0.00561  -0.00811   1.98863
   A15        2.09947  -0.00019   0.00545  -0.00850  -0.01060   2.08887
    D1       -3.13972   0.00006  -0.00456   0.01818   0.01350  -3.12622
    D2        1.07818  -0.00021  -0.00622   0.02208   0.01586   1.09404
    D3       -0.97663   0.00030   0.00031  -0.00205  -0.00164  -0.97827
    D4       -1.04152  -0.00003  -0.00489   0.01838   0.01338  -1.02814
    D5       -3.10681  -0.00030  -0.00655   0.02228   0.01575  -3.09106
    D6        1.12157   0.00021  -0.00001  -0.00184  -0.00176   1.11981
    D7        1.05079   0.00009  -0.00616   0.02495   0.01868   1.06947
    D8       -1.01450  -0.00018  -0.00782   0.02885   0.02104  -0.99345
    D9       -3.06930   0.00033  -0.00128   0.00472   0.00354  -3.06576
   D10       -2.56796   0.00329   0.00746   0.20003   0.20729  -2.36067
   D11        0.70900  -0.00252  -0.06379   0.02535  -0.03818   0.67082
   D12       -0.36526   0.00283   0.01726   0.15734   0.17423  -0.19103
   D13        2.91170  -0.00298  -0.05399  -0.01734  -0.07123   2.84047
   D14        1.62156   0.00318   0.01132   0.18464   0.19582   1.81738
   D15       -1.38467  -0.00263  -0.05993   0.00996  -0.04964  -1.43431
         Item               Value     Threshold  Converged?
 Maximum Force            0.003289     0.000450     NO 
 RMS     Force            0.001276     0.000300     NO 
 Maximum Displacement     0.162723     0.001800     NO 
 RMS     Displacement     0.051699     0.001200     NO 
 Predicted change in Energy=-1.040657D-03
 GradGradGradGradGradGradGradGradGradGradGradGradGradGradGradGradGradGrad

                          Input orientation:                          
 ---------------------------------------------------------------------
 Center     Atomic      Atomic             Coordinates (Angstroms)
 Number     Number       Type             X           Y           Z
 ---------------------------------------------------------------------
      1          6           0        1.746759   -0.213176   -0.125961
      2          1           0        1.918601   -0.979597    0.637691
      3          1           0        1.711709   -0.713596   -1.097933
      4          1           0        2.613061    0.455085   -0.121176
      5          6           0        0.454330    0.566410    0.145235
      6          1           0        0.273542    1.322787   -0.626544
      7          1           0        0.533711    1.101159    1.101597
      8          6           0       -0.761895   -0.339582    0.251916
      9          8           0       -1.829124   -0.150493   -0.257586
     10          1           0       -0.569430   -1.275737    0.762828
 ---------------------------------------------------------------------
                    Distance matrix (angstroms):
                    1          2          3          4          5
     1  C    0.000000
     2  H    1.095489   0.000000
     3  H    1.093791   1.768036   0.000000
     4  H    1.094109   1.765351   1.769832   0.000000
     5  C    1.533516   2.185575   2.182861   2.177954   0.000000
     6  H    2.186351   3.099271   2.537201   2.545908   1.095643
     7  H    2.169300   2.542180   3.085280   2.497255   1.098584
     8  C    2.540101   2.782714   2.842656   3.487265   1.520330
     9  O    3.578853   3.941367   3.682495   4.485347   2.427010
    10  H    2.698835   2.508716   2.997004   3.729002   2.196135
                    6          7          8          9         10
     6  H    0.000000
     7  H    1.761612   0.000000
     8  C    2.146460   2.115724   0.000000
     9  O    2.593818   2.999500   1.197633   0.000000
    10  H    3.064846   2.642219   1.083725   1.973384   0.000000
 Stoichiometry    C3H6O
 Framework group  C1[X(C3H6O)]
 Deg. of freedom    24
 Full point group                 C1      NOp   1
 Largest Abelian subgroup         C1      NOp   1
 Largest concise Abelian subgroup C1      NOp   1
                         Standard orientation:                         
 ---------------------------------------------------------------------
 Center     Atomic      Atomic             Coordinates (Angstroms)
 Number     Number       Type             X           Y           Z
 ---------------------------------------------------------------------
      1          6           0       -1.718534    0.262665   -0.157073
      2          1           0       -1.859368    1.048046    0.593551
      3          1           0       -1.646099    0.746318   -1.135445
      4          1           0       -2.618344   -0.359755   -0.153790
      5          6           0       -0.471592   -0.578668    0.141202
      6          1           0       -0.321208   -1.354601   -0.617576
      7          1           0       -0.589893   -1.094537    1.103892
      8          6           0        0.788666    0.264673    0.250422
      9          8           0        1.850581    0.013201   -0.242957
     10          1           0        0.639029    1.216908    0.745716
 ---------------------------------------------------------------------
 Rotational constants (GHZ):          27.9186162           4.2217925           4.0199009
 Standard basis: def2TZVP (5D, 7F)
 There are   180 symmetry adapted cartesian basis functions of A   symmetry.
 There are   160 symmetry adapted basis functions of A   symmetry.
   160 basis functions,   252 primitive gaussians,   180 cartesian basis functions
    16 alpha electrons       16 beta electrons
       nuclear repulsion energy       116.3332163035 Hartrees.
 NAtoms=   10 NActive=   10 NUniq=   10 SFac= 1.00D+00 NAtFMM=   60 NAOKFM=F Big=F
 Integral buffers will be    131072 words long.
 Raffenetti 2 integral format.
 Two-electron integral symmetry is turned on.
 Nuclear repulsion after empirical dispersion term =      116.3154463210 Hartrees.
 Standard density basis: Auto (5D, 7F)
   734 Density fitting functions
 There are   734 symmetry adapted density basis functions of A   symmetry.
 One-electron integrals computed using PRISM.
   1 Symmetry operations used in ECPInt.
 ECPInt:  NShTT=    2346 NPrTT=    6892 LenC2=    2332 LenP2D=    5907.
 LDataN:  DoStor=T MaxTD1= 6 Len=  172
 NBasis=   160 RedAO= T EigKep=  3.93D-04  NBF=   160
 NBsUse=   160 1.00D-06 EigRej= -1.00D+00 NBFU=   160
 NBasis=      160 NBas6D=      180 NTT=       12880   NTT6D=    16290
 NDBShl=      110 NDBF=        734 NDBF6D=      928  NNucDB=        0
 IDenFi=        2 ISolve=        0 FullAP=F BlkAPC=T NucTyp=        0
 TolInv= 1.00D-06 TolIt=  1.00D-10 IR12=0.
 FoFCou: FMM=F IPFlag=           0 FMFlag=           0 FMFlg1=           0
         NFxFlg=           0 DoJE=F BraDBF=T KetDBF=T FulRan=T
         wScrn=  0.000000 ICntrl=       600 IOpCl=  3 I1Cent=           6 NGrid=           0
         NMat0=    1 NMatS0=    928 NMatT0=    0 NMatD0=    1 NMtDS0=    0 NMtDT0=    0
 Petite list used in FoFCou.
 DBF EigKep=  1.52D-06 EigRej=  7.42D-07
 NDBF=    734  NBFD=   734
 NRank=   723 NBFDU=   723
 S*AI*S=  7.27228903771    
 Lowest energy guess from the checkpoint file:  "/home/monty/scratch/Gau-138845.chk"
 B after Tr=     0.000000   -0.000000    0.000000
         Rot=    0.999056   -0.043048    0.001625    0.005591 Ang=  -4.98 deg.
 B after Tr=     0.000000   -0.000000   -0.000000
         Rot=    0.999178   -0.040248    0.001982    0.004389 Ang=  -4.65 deg.
 Recovered     1 saved fitting vectors from chk file.
 Requested convergence on RMS density matrix=1.00D-08 within 128 cycles.
 Requested convergence on MAX density matrix=1.00D-06.
 Requested convergence on             energy=1.00D-06.
 No special actions if energy rises.
 FoFCou: FMM=F IPFlag=           0 FMFlag=      100000 FMFlg1=           0
         NFxFlg=           0 DoJE=T BraDBF=T KetDBF=F FulRan=T
         wScrn=  0.000000 ICntrl=       500 IOpCl=  0 I1Cent=           5 NGrid=           0
         NMat0=    1 NMatS0=      1 NMatT0=    0 NMatD0=    1 NMtDS0=    0 NMtDT0=    0
 Symmetry not used in FoFCou.
 Initial convergence to 1.0D-05 achieved.  Increase integral accuracy.
 SCF Done:  E(RB97D3) =  -193.103584080     A.U. after   12 cycles
            NFock= 12  Conv=0.98D-08     -V/T= 2.0042
   1 Symmetry operations used in ECPInt.
 ECPInt:  NShTT=    2346 NPrTT=    6892 LenC2=    2332 LenP2D=    5907.
 LDataN:  DoStor=T MaxTD1= 7 Len=  274
 Calling FoFJK, ICntrl=      2527 FMM=F ISym2X=0 I1Cent= 4 IOpClX= 0 NMat=1 NMatS=1 NMatT=0.
 ***** Axes restored to original set *****
 -------------------------------------------------------------------
 Center     Atomic                   Forces (Hartrees/Bohr)
 Number     Number              X              Y              Z
 -------------------------------------------------------------------
      1        6          -0.000091448   -0.000613889    0.001706184
      2        1          -0.000154054   -0.000504825    0.000547536
      3        1          -0.000374733   -0.000217749   -0.001053386
      4        1          -0.000218835    0.000462549   -0.000198413
      5        6          -0.002851323    0.002221632   -0.000554451
      6        1          -0.001556437   -0.000302858    0.000397062
      7        1           0.001163354    0.000434987    0.002064932
      8        6           0.018812170    0.007797157   -0.011651460
      9        8          -0.018607850    0.007855696   -0.006449441
     10        1           0.003879156   -0.017132701    0.015191436
 -------------------------------------------------------------------
 Cartesian Forces:  Max     0.018812170 RMS     0.007226551

 GradGradGradGradGradGradGradGradGradGradGradGradGradGradGradGradGradGrad
 Berny optimization.
 Using GEDIIS/GDIIS optimizer.
 FormGI is forming the generalized inverse of G from B-inverse, IUseBI=4.
 Internal  Forces:  Max     0.022651144 RMS     0.005138282
 Search for a local minimum.
 Step number   4 out of a maximum of   49
 All quantities printed in internal units (Hartrees-Bohrs-Radians)
 Mixed Optimization -- RFO/linear search
 Iteration  1 RMS(Cart)=  0.05113836 RMS(Int)=  0.00465399
 Iteration  2 RMS(Cart)=  0.00441893 RMS(Int)=  0.00002318
 Iteration  3 RMS(Cart)=  0.00002223 RMS(Int)=  0.00000000
 Iteration  4 RMS(Cart)=  0.00000000 RMS(Int)=  0.00000000
 Update second derivatives using D2CorX and points    1    4    3    2
 DE=  1.63D-04 DEPred=-1.04D-03 R=-1.56D-01
 Trust test=-1.56D-01 RLast= 1.87D-01 DXMaxT set to 1.26D-01
 ITU= -1 -1  1  0
 Use linear search instead of GDIIS.
 Energy rises -- skip Quadratic/GDIIS search.
 Quartic linear search produced a step of -0.58900.
 Iteration  1 RMS(Cart)=  0.01497221 RMS(Int)=  0.00132066
 Iteration  2 RMS(Cart)=  0.00037284 RMS(Int)=  0.00125339
 Iteration  3 RMS(Cart)=  0.00000032 RMS(Int)=  0.00125339
 Variable       Old X    -DE/DX   Delta X   Delta X   Delta X     New X
                                 (Linear)    (Quad)   (Total)
    R1        2.07144   0.00004   0.00048   0.00000  -0.00078   2.07065
    R2        2.07101  -0.00019   0.00131   0.00000  -0.00274   2.06827
    R3        2.06755   0.00011   0.00004   0.00000   0.00006   2.06760
    R4        2.89385   0.00037  -0.00111   0.00000   0.00297   2.89682
    R5        2.07014  -0.00001  -0.00002   0.00000   0.00030   2.07044
    R6        2.08569  -0.00077   0.00291   0.00000  -0.00676   2.07893
    R7        2.85754   0.00029  -0.00486   0.00000   0.01060   2.86814
    R8        2.28268   0.00256   0.00753   0.00000  -0.01195   2.27073
    R9        2.11432   0.00135   0.02256   0.00000  -0.04382   2.07050
    A1        1.88261   0.00004   0.00070   0.00000  -0.00180   1.88080
    A2        1.88232  -0.00016   0.00205   0.00000  -0.00472   1.87760
    A3        1.94012   0.00000  -0.00140   0.00000   0.00246   1.94259
    A4        1.88141   0.00007  -0.00075   0.00000   0.00247   1.88388
    A5        1.94132  -0.00021  -0.00040   0.00000   0.00027   1.94159
    A6        1.93361   0.00025  -0.00010   0.00000   0.00111   1.93472
    A7        1.96771  -0.00073   0.00654   0.00000  -0.01624   1.95147
    A8        1.91075   0.00042  -0.00195   0.00000   0.00545   1.91620
    A9        1.98190   0.00006   0.00547   0.00000  -0.01181   1.97010
   A10        1.85849   0.00036  -0.00091   0.00000   0.00478   1.86327
   A11        1.89387   0.00058  -0.00364   0.00000   0.00863   1.90250
   A12        1.84304  -0.00067  -0.00685   0.00000   0.01178   1.85483
   A13        2.17904   0.00091  -0.00584   0.00000   0.01118   2.19022
   A14        1.99674  -0.00004   0.00501   0.00000  -0.00759   1.98915
   A15        2.09947  -0.00019   0.00545   0.00000  -0.00969   2.08977
    D1       -3.13972   0.00006  -0.00456   0.00000   0.00902  -3.13070
    D2        1.07818  -0.00021  -0.00622   0.00000   0.00964   1.08782
    D3       -0.97663   0.00030   0.00031   0.00000  -0.00141  -0.97804
    D4       -1.04152  -0.00003  -0.00489   0.00000   0.00858  -1.03294
    D5       -3.10681  -0.00030  -0.00655   0.00000   0.00919  -3.09762
    D6        1.12157   0.00021  -0.00001   0.00000  -0.00185   1.11971
    D7        1.05079   0.00009  -0.00616   0.00000   0.01261   1.06340
    D8       -1.01450  -0.00018  -0.00782   0.00000   0.01322  -1.00128
    D9       -3.06930   0.00033  -0.00128   0.00000   0.00217  -3.06713
   D10       -2.56796   0.00329   0.00746   0.00000   0.21449  -2.35346
   D11        0.70900  -0.00252  -0.06379   0.00000  -0.10175   0.60725
   D12       -0.36526   0.00283   0.01726   0.00000   0.19136  -0.17390
   D13        2.91170  -0.00298  -0.05399   0.00000  -0.12488   2.78681
   D14        1.62156   0.00318   0.01132   0.00000   0.20682   1.82838
   D15       -1.38467  -0.00263  -0.05993   0.00000  -0.10943  -1.49410
         Item               Value     Threshold  Converged?
 Maximum Force            0.022651     0.000450     NO 
 RMS     Force            0.005138     0.000300     NO 
 Maximum Displacement     0.051665     0.001800     NO 
 RMS     Displacement     0.015032     0.001200     NO 
 Predicted change in Energy=-1.289786D-03
 GradGradGradGradGradGradGradGradGradGradGradGradGradGradGradGradGradGrad

                          Input orientation:                          
 ---------------------------------------------------------------------
 Center     Atomic      Atomic             Coordinates (Angstroms)
 Number     Number       Type             X           Y           Z
 ---------------------------------------------------------------------
      1          6           0        1.746079   -0.213711   -0.122609
      2          1           0        1.919828   -0.971981    0.649070
      3          1           0        1.708096   -0.724346   -1.089924
      4          1           0        2.611408    0.455830   -0.128749
      5          6           0        0.454104    0.566865    0.144548
      6          1           0        0.266466    1.320297   -0.628457
      7          1           0        0.535538    1.106136    1.099966
      8          6           0       -0.763534   -0.331094    0.265437
      9          8           0       -1.828944   -0.135554   -0.254705
     10          1           0       -0.557777   -1.299181    0.735488
 ---------------------------------------------------------------------
                    Distance matrix (angstroms):
                    1          2          3          4          5
     1  C    0.000000
     2  H    1.095742   0.000000
     3  H    1.094482   1.769253   0.000000
     4  H    1.094128   1.766898   1.769928   0.000000
     5  C    1.532929   2.184248   2.182578   2.177379   0.000000
     6  H    2.190507   3.101649   2.543977   2.548679   1.095630
     7  H    2.168431   2.537348   3.085641   2.498374   1.100122
     8  C    2.542148   2.785380   2.846156   3.487816   1.517757
     9  O    3.578317   3.945848   3.681701   4.481331   2.421798
    10  H    2.687439   2.500611   2.965931   3.724339   2.203461
                    6          7          8          9         10
     6  H    0.000000
     7  H    1.762303   0.000000
     8  C    2.141737   2.109421   0.000000
     9  O    2.578747   2.994612   1.201617   0.000000
    10  H    3.066168   2.667158   1.095663   1.987555   0.000000
 Stoichiometry    C3H6O
 Framework group  C1[X(C3H6O)]
 Deg. of freedom    24
 Full point group                 C1      NOp   1
 Largest Abelian subgroup         C1      NOp   1
 Largest concise Abelian subgroup C1      NOp   1
                         Standard orientation:                         
 ---------------------------------------------------------------------
 Center     Atomic      Atomic             Coordinates (Angstroms)
 Number     Number       Type             X           Y           Z
 ---------------------------------------------------------------------
      1          6           0       -1.719306    0.258349   -0.157874
      2          1           0       -1.865941    1.040348    0.595536
      3          1           0       -1.646351    0.745716   -1.135137
      4          1           0       -2.615053   -0.369939   -0.160673
      5          6           0       -0.468607   -0.575906    0.141532
      6          1           0       -0.307857   -1.353752   -0.613133
      7          1           0       -0.586175   -1.090092    1.106964
      8          6           0        0.788480    0.266478    0.258613
      9          8           0        1.849351    0.010146   -0.244109
     10          1           0        0.623173    1.253023    0.705691
 ---------------------------------------------------------------------
 Rotational constants (GHZ):          27.8812769           4.2249793           4.0229088
 Standard basis: def2TZVP (5D, 7F)
 There are   180 symmetry adapted cartesian basis functions of A   symmetry.
 There are   160 symmetry adapted basis functions of A   symmetry.
   160 basis functions,   252 primitive gaussians,   180 cartesian basis functions
    16 alpha electrons       16 beta electrons
       nuclear repulsion energy       116.2685333629 Hartrees.
 NAtoms=   10 NActive=   10 NUniq=   10 SFac= 1.00D+00 NAtFMM=   60 NAOKFM=F Big=F
 Integral buffers will be    131072 words long.
 Raffenetti 2 integral format.
 Two-electron integral symmetry is turned on.
 Nuclear repulsion after empirical dispersion term =      116.2507558278 Hartrees.
 Standard density basis: Auto (5D, 7F)
   734 Density fitting functions
 There are   734 symmetry adapted density basis functions of A   symmetry.
 One-electron integrals computed using PRISM.
   1 Symmetry operations used in ECPInt.
 ECPInt:  NShTT=    2346 NPrTT=    6892 LenC2=    2332 LenP2D=    5908.
 LDataN:  DoStor=T MaxTD1= 6 Len=  172
 NBasis=   160 RedAO= T EigKep=  3.92D-04  NBF=   160
 NBsUse=   160 1.00D-06 EigRej= -1.00D+00 NBFU=   160
 NBasis=      160 NBas6D=      180 NTT=       12880   NTT6D=    16290
 NDBShl=      110 NDBF=        734 NDBF6D=      928  NNucDB=        0
 IDenFi=        2 ISolve=        0 FullAP=F BlkAPC=T NucTyp=        0
 TolInv= 1.00D-06 TolIt=  1.00D-10 IR12=0.
 FoFCou: FMM=F IPFlag=           0 FMFlag=           0 FMFlg1=           0
         NFxFlg=           0 DoJE=F BraDBF=T KetDBF=T FulRan=T
         wScrn=  0.000000 ICntrl=       600 IOpCl=  3 I1Cent=           6 NGrid=           0
         NMat0=    1 NMatS0=    928 NMatT0=    0 NMatD0=    1 NMtDS0=    0 NMtDT0=    0
 Petite list used in FoFCou.
 DBF EigKep=  1.54D-06 EigRej=  7.28D-07
 NDBF=    734  NBFD=   734
 NRank=   723 NBFDU=   723
 S*AI*S=  7.27321429651    
 Lowest energy guess from the checkpoint file:  "/home/monty/scratch/Gau-138845.chk"
 B after Tr=     0.000000   -0.000000    0.000000
         Rot=    0.999183   -0.040088    0.001809    0.004744 Ang=  -4.63 deg.
 B after Tr=     0.000000   -0.000000   -0.000000
         Rot=    0.999995    0.003083    0.000209   -0.000846 Ang=   0.37 deg.
 Recovered     1 saved fitting vectors from chk file.
 Requested convergence on RMS density matrix=1.00D-08 within 128 cycles.
 Requested convergence on MAX density matrix=1.00D-06.
 Requested convergence on             energy=1.00D-06.
 No special actions if energy rises.
 FoFCou: FMM=F IPFlag=           0 FMFlag=      100000 FMFlg1=           0
         NFxFlg=           0 DoJE=T BraDBF=T KetDBF=F FulRan=T
         wScrn=  0.000000 ICntrl=       500 IOpCl=  0 I1Cent=           5 NGrid=           0
         NMat0=    1 NMatS0=      1 NMatT0=    0 NMatD0=    1 NMtDS0=    0 NMtDT0=    0
 Symmetry not used in FoFCou.
 Initial convergence to 1.0D-05 achieved.  Increase integral accuracy.
 SCF Done:  E(RB97D3) =  -193.103354755     A.U. after   11 cycles
            NFock= 11  Conv=0.30D-08     -V/T= 2.0043
   1 Symmetry operations used in ECPInt.
 ECPInt:  NShTT=    2346 NPrTT=    6892 LenC2=    2332 LenP2D=    5908.
 LDataN:  DoStor=T MaxTD1= 7 Len=  274
 Calling FoFJK, ICntrl=      2527 FMM=F ISym2X=0 I1Cent= 4 IOpClX= 0 NMat=1 NMatS=1 NMatT=0.
 ***** Axes restored to original set *****
 -------------------------------------------------------------------
 Center     Atomic                   Forces (Hartrees/Bohr)
 Number     Number              X              Y              Z
 -------------------------------------------------------------------
      1        6          -0.000512706   -0.001064206    0.001081244
      2        1          -0.000031571   -0.000335536    0.000332445
      3        1          -0.000341144   -0.000147311   -0.000666651
      4        1          -0.000295811    0.000441377   -0.000070392
      5        6          -0.002800786    0.004102635    0.003576120
      6        1          -0.001271744   -0.000459603    0.000394371
      7        1           0.001803966    0.000758501    0.001213695
      8        6           0.016090120   -0.000063758   -0.018430514
      9        8          -0.014106692    0.006878704   -0.000893808
     10        1           0.001466369   -0.010110802    0.013463490
 -------------------------------------------------------------------
 Cartesian Forces:  Max     0.018430514 RMS     0.006270959

 GradGradGradGradGradGradGradGradGradGradGradGradGradGradGradGradGradGrad
 Berny optimization.
 Using GEDIIS/GDIIS optimizer.
 FormGI is forming the generalized inverse of G from B-inverse, IUseBI=4.
 Internal  Forces:  Max     0.014985486 RMS     0.003844188
 Search for a local minimum.
 Step number   5 out of a maximum of   49
 All quantities printed in internal units (Hartrees-Bohrs-Radians)
 Mixed Optimization -- RFO/linear search
 Update second derivatives using D2CorX and points    1    4    3    5    2
 ITU=  0 -1 -1  1  0
 Use linear search instead of GDIIS.
 Energy rises -- skip Quadratic/GDIIS search.
 Quartic linear search produced a step of -0.73711.
 Iteration  1 RMS(Cart)=  0.04014480 RMS(Int)=  0.00228726
 Iteration  2 RMS(Cart)=  0.00206864 RMS(Int)=  0.00029395
 Iteration  3 RMS(Cart)=  0.00000418 RMS(Int)=  0.00029392
 Iteration  4 RMS(Cart)=  0.00000000 RMS(Int)=  0.00029392
 Variable       Old X    -DE/DX   Delta X   Delta X   Delta X     New X
                                 (Linear)    (Quad)   (Total)
    R1        2.07065   0.00046   0.00118   0.00000   0.00118   2.07183
    R2        2.06827   0.00067   0.00365   0.00000   0.00365   2.07192
    R3        2.06760   0.00004   0.00000   0.00000   0.00000   2.06761
    R4        2.89682  -0.00055  -0.00358   0.00000  -0.00358   2.89324
    R5        2.07044  -0.00038  -0.00025   0.00000  -0.00025   2.07019
    R6        2.07893   0.00156   0.00862   0.00000   0.00862   2.08755
    R7        2.86814  -0.00128  -0.01390   0.00000  -0.01390   2.85424
    R8        2.27073   0.01401   0.01823   0.00000   0.01823   2.28896
    R9        2.07050   0.01499   0.06053   0.00000   0.06053   2.13104
    A1        1.88080   0.00022   0.00221   0.00000   0.00221   1.88301
    A2        1.87760   0.00037   0.00605   0.00000   0.00605   1.88365
    A3        1.94259   0.00013  -0.00356   0.00000  -0.00356   1.93902
    A4        1.88388   0.00041  -0.00275   0.00000  -0.00275   1.88113
    A5        1.94159  -0.00042  -0.00070   0.00000  -0.00070   1.94089
    A6        1.93472  -0.00064  -0.00094   0.00000  -0.00094   1.93378
    A7        1.95147   0.00183   0.02015   0.00000   0.02016   1.97164
    A8        1.91620  -0.00063  -0.00646   0.00000  -0.00650   1.90970
    A9        1.97010  -0.00277   0.01555   0.00000   0.01557   1.98567
   A10        1.86327  -0.00025  -0.00467   0.00000  -0.00463   1.85864
   A11        1.90250  -0.00034  -0.01091   0.00000  -0.01079   1.89170
   A12        1.85483   0.00229  -0.01726   0.00000  -0.01726   1.83757
   A13        2.19022  -0.00117  -0.01555   0.00000  -0.01450   2.17572
   A14        1.98915   0.00103   0.01186   0.00000   0.01292   2.00207
   A15        2.08977   0.00153   0.01397   0.00000   0.01502   2.10480
    D1       -3.13070   0.00052  -0.01236   0.00000  -0.01233   3.14016
    D2        1.08782   0.00009  -0.01489   0.00000  -0.01489   1.07292
    D3       -0.97804  -0.00061   0.00143   0.00000   0.00139  -0.97665
    D4       -1.03294   0.00060  -0.01244   0.00000  -0.01240  -1.04535
    D5       -3.09762   0.00017  -0.01497   0.00000  -0.01497  -3.11259
    D6        1.11971  -0.00053   0.00135   0.00000   0.00131   1.12103
    D7        1.06340   0.00040  -0.01700   0.00000  -0.01696   1.04644
    D8       -1.00128  -0.00003  -0.01953   0.00000  -0.01953  -1.02081
    D9       -3.06713  -0.00073  -0.00321   0.00000  -0.00324  -3.07037
   D10       -2.35346  -0.00460  -0.14877   0.00000  -0.14877  -2.50223
   D11        0.60725   0.00450  -0.00483   0.00000  -0.00485   0.60240
   D12       -0.17390  -0.00444  -0.11946   0.00000  -0.11940  -0.29330
   D13        2.78681   0.00466   0.02448   0.00000   0.02452   2.81133
   D14        1.82838  -0.00371  -0.13829   0.00000  -0.13831   1.69007
   D15       -1.49410   0.00539   0.00566   0.00000   0.00561  -1.48849
         Item               Value     Threshold  Converged?
 Maximum Force            0.014985     0.000450     NO 
 RMS     Force            0.003844     0.000300     NO 
 Maximum Displacement     0.133356     0.001800     NO 
 RMS     Displacement     0.040125     0.001200     NO 
 Predicted change in Energy=-2.198558D-04
 GradGradGradGradGradGradGradGradGradGradGradGradGradGradGradGradGradGrad

[...]
      7        1           0.000016475   -0.000001384   -0.000007921
      8        6           0.000038155   -0.000043143    0.000017327
      9        8           0.000011497    0.000009269    0.000011409
     10        1          -0.000022299    0.000038103   -0.000028103
 -------------------------------------------------------------------
 Cartesian Forces:  Max     0.000072158 RMS     0.000023675
 FormGI is forming the generalized inverse of G from B-inverse, IUseBI=4.

 GradGradGradGradGradGradGradGradGradGradGradGradGradGradGradGradGradGrad
 Berny optimization.
 Internal  Forces:  Max     0.000048972 RMS     0.000013938
 Search for a local minimum.
 Step number   1 out of a maximum of    2
 All quantities printed in internal units (Hartrees-Bohrs-Radians)
 Second derivative matrix not updated -- analytic derivatives used.
 ITU=  0
     Eigenvalues ---    0.00097   0.00205   0.03165   0.04047   0.04357
     Eigenvalues ---    0.04408   0.04648   0.06873   0.09655   0.11558
     Eigenvalues ---    0.12560   0.13821   0.15641   0.16931   0.20635
     Eigenvalues ---    0.25610   0.27455   0.28394   0.31572   0.32364
     Eigenvalues ---    0.32590   0.32999   0.33399   0.81764
 Angle between quadratic step and forces=  65.82 degrees.
 Linear search not attempted -- first point.
 Iteration  1 RMS(Cart)=  0.00030327 RMS(Int)=  0.00000008
 Iteration  2 RMS(Cart)=  0.00000007 RMS(Int)=  0.00000001
 Variable       Old X    -DE/DX   Delta X   Delta X   Delta X     New X
                                 (Linear)    (Quad)   (Total)
    R1        2.07165  -0.00001   0.00000  -0.00004  -0.00004   2.07161
    R2        2.06948   0.00000   0.00000  -0.00001  -0.00001   2.06947
    R3        2.06785  -0.00001   0.00000  -0.00002  -0.00002   2.06783
    R4        2.90494   0.00002   0.00000   0.00018   0.00018   2.90513
    R5        2.06827   0.00001   0.00000   0.00004   0.00004   2.06831
    R6        2.08096  -0.00001   0.00000  -0.00003  -0.00003   2.08093
    R7        2.85336  -0.00002   0.00000  -0.00015  -0.00015   2.85321
    R8        2.28532  -0.00002   0.00000   0.00002   0.00002   2.28534
    R9        2.11890  -0.00005   0.00000  -0.00020  -0.00020   2.11871
    A1        1.88508   0.00000   0.00000   0.00010   0.00010   1.88517
    A2        1.88222   0.00002   0.00000   0.00013   0.00013   1.88235
    A3        1.94113  -0.00001   0.00000  -0.00005  -0.00005   1.94108
    A4        1.88743   0.00001   0.00000   0.00007   0.00007   1.88750
    A5        1.93534   0.00001   0.00000   0.00004   0.00004   1.93538
    A6        1.93064  -0.00003   0.00000  -0.00028  -0.00028   1.93036
    A7        1.95256  -0.00001   0.00000  -0.00019  -0.00019   1.95238
    A8        1.90515  -0.00002   0.00000  -0.00022  -0.00022   1.90493
    A9        1.94444   0.00002   0.00000   0.00012   0.00012   1.94455
   A10        1.88816   0.00000   0.00000   0.00004   0.00004   1.88821
   A11        1.90205   0.00000   0.00000   0.00005   0.00005   1.90210
   A12        1.86876   0.00001   0.00000   0.00022   0.00022   1.86898
   A13        2.18941  -0.00002   0.00000  -0.00014  -0.00014   2.18927
   A14        1.99171   0.00003   0.00000   0.00022   0.00022   1.99192
   A15        2.10200  -0.00001   0.00000  -0.00008  -0.00008   2.10192
    D1       -3.10588  -0.00001   0.00000  -0.00025  -0.00025  -3.10613
    D2        1.08814   0.00000   0.00000  -0.00003  -0.00003   1.08811
    D3       -0.97197  -0.00000   0.00000  -0.00023  -0.00023  -0.97220
    D4       -1.00791  -0.00000   0.00000  -0.00013  -0.00013  -1.00804
    D5       -3.09707   0.00001   0.00000   0.00008   0.00008  -3.09699
    D6        1.12600   0.00000   0.00000  -0.00012  -0.00012   1.12589
    D7        1.08607  -0.00001   0.00000  -0.00020  -0.00020   1.08587
    D8       -1.00309   0.00001   0.00000   0.00001   0.00001  -1.00308
    D9       -3.06320  -0.00000   0.00000  -0.00019  -0.00019  -3.06338
   D10       -2.15788  -0.00001   0.00000   0.00050   0.00050  -2.15738
   D11        0.97109   0.00001   0.00000   0.00071   0.00071   0.97180
   D12        0.00491  -0.00001   0.00000   0.00038   0.00038   0.00529
   D13        3.13388   0.00000   0.00000   0.00059   0.00059   3.13446
   D14        2.04342  -0.00000   0.00000   0.00057   0.00057   2.04399
   D15       -1.11080   0.00001   0.00000   0.00078   0.00078  -1.11003
         Item               Value     Threshold  Converged?
 Maximum Force            0.000049     0.000450     YES
 RMS     Force            0.000014     0.000300     YES
 Maximum Displacement     0.001031     0.001800     YES
 RMS     Displacement     0.000303     0.001200     YES
 Predicted change in Energy=-3.002921D-08
 Optimization completed.
    -- Stationary point found.
                           ----------------------------
                           !   Optimized Parameters   !
                           ! (Angstroms and Degrees)  !
 --------------------------                            --------------------------
 ! Name  Definition              Value          Derivative Info.                !
 --------------------------------------------------------------------------------
 ! R1    R(1,2)                  1.0963         -DE/DX =    0.0                 !
 ! R2    R(1,3)                  1.0951         -DE/DX =    0.0                 !
 ! R3    R(1,4)                  1.0943         -DE/DX =    0.0                 !
 ! R4    R(1,5)                  1.5372         -DE/DX =    0.0                 !
 ! R5    R(5,6)                  1.0945         -DE/DX =    0.0                 !
 ! R6    R(5,7)                  1.1012         -DE/DX =    0.0                 !
 ! R7    R(5,8)                  1.5099         -DE/DX =    0.0                 !
 ! R8    R(8,9)                  1.2093         -DE/DX =    0.0                 !
 ! R9    R(8,10)                 1.1213         -DE/DX =    0.0                 !
 ! A1    A(2,1,3)              108.0069         -DE/DX =    0.0                 !
 ! A2    A(2,1,4)              107.8432         -DE/DX =    0.0                 !
 ! A3    A(2,1,5)              111.2185         -DE/DX =    0.0                 !
 ! A4    A(3,1,4)              108.142          -DE/DX =    0.0                 !
 ! A5    A(3,1,5)              110.8869         -DE/DX =    0.0                 !
 ! A6    A(4,1,5)              110.6174         -DE/DX =    0.0                 !
 ! A7    A(1,5,6)              111.8737         -DE/DX =    0.0                 !
 ! A8    A(1,5,7)              109.1572         -DE/DX =    0.0                 !
 ! A9    A(1,5,8)              111.408          -DE/DX =    0.0                 !
 ! A10   A(6,5,7)              108.1839         -DE/DX =    0.0                 !
 ! A11   A(6,5,8)              108.9795         -DE/DX =    0.0                 !
 ! A12   A(7,5,8)              107.0721         -DE/DX =    0.0                 !
 ! A13   A(5,8,9)              125.444          -DE/DX =    0.0                 !
 ! A14   A(5,8,10)             114.1164         -DE/DX =    0.0                 !
 ! A15   A(9,8,10)             120.4357         -DE/DX =    0.0                 !
 ! D1    D(2,1,5,6)           -177.9541         -DE/DX =    0.0                 !
 ! D2    D(2,1,5,7)             62.3459         -DE/DX =    0.0                 !
 ! D3    D(2,1,5,8)            -55.6896         -DE/DX =    0.0                 !
 ! D4    D(3,1,5,6)            -57.7493         -DE/DX =    0.0                 !
 ! D5    D(3,1,5,7)           -177.4493         -DE/DX =    0.0                 !
 ! D6    D(3,1,5,8)             64.5152         -DE/DX =    0.0                 !
 ! D7    D(4,1,5,6)             62.2274         -DE/DX =    0.0                 !
 ! D8    D(4,1,5,7)            -57.4727         -DE/DX =    0.0                 !
 ! D9    D(4,1,5,8)           -175.5081         -DE/DX =    0.0                 !
 ! D10   D(1,5,8,9)           -123.6374         -DE/DX =    0.0                 !
 ! D11   D(1,5,8,10)            55.6391         -DE/DX =    0.0                 !
 ! D12   D(6,5,8,9)              0.2813         -DE/DX =    0.0                 !
 ! D13   D(6,5,8,10)           179.5578         -DE/DX =    0.0                 !
 ! D14   D(7,5,8,9)            117.0791         -DE/DX =    0.0                 !
 ! D15   D(7,5,8,10)           -63.6444         -DE/DX =    0.0                 !
 --------------------------------------------------------------------------------
 GradGradGradGradGradGradGradGradGradGradGradGradGradGradGradGradGradGrad


 ----------------------------------------------------------------------

 Electric dipole moment (input orientation):
 (Debye = 10**-18 statcoulomb cm , SI units = C m)
                  (au)            (Debye)         (10**-30 SI)
   Tot        0.111643D+01      0.283768D+01      0.946549D+01
   x          0.101930D+01      0.259081D+01      0.864201D+01
   y          0.807077D-01      0.205139D+00      0.684269D+00
   z          0.448247D+00      0.113933D+01      0.380040D+01

 Dipole polarizability, Alpha (input orientation).
 (esu units = cm**3 , SI units = C**2 m**2 J**-1)
 Alpha(0;0):
               (au)            (10**-24 esu)      (10**-40 SI)
   iso        0.412080D+02      0.610639D+01      0.679428D+01
   aniso      0.130350D+02      0.193159D+01      0.214918D+01
   xx         0.484728D+02      0.718293D+01      0.799209D+01
   yx         0.911314D+00      0.135043D+00      0.150255D+00
   yy         0.379863D+02      0.562899D+01      0.626310D+01
   zx         0.305653D+01      0.452931D+00      0.503954D+00
   zy        -0.259075D+01     -0.383909D+00     -0.427157D+00
   zz         0.371648D+02      0.550725D+01      0.612765D+01

 ----------------------------------------------------------------------

 Dipole orientation:
     6          1.61298544         -0.53256909          2.85918620
     1          0.54936742         -2.15380387          3.58859430
     1          3.32936662         -1.24930404          1.95195597
     1          2.17579748          0.63329647          4.47163547
     6          0.01957074          1.01339161          0.98576048
     1          1.08514613          2.59888537          0.19297787
     1         -1.64447073          1.77856940          1.97362295
     6         -0.94838555         -0.61397269         -1.14881883
     8         -0.59318307         -0.23073524         -3.37360372
     1         -2.05757798         -2.30426021         -0.51449322

 Electric dipole moment (dipole orientation):
 (Debye = 10**-18 statcoulomb cm , SI units = C m)
                  (au)            (Debye)         (10**-30 SI)
   Tot        0.111643D+01      0.283768D+01      0.946549D+01
   x          0.000000D+00      0.000000D+00      0.000000D+00
   y          0.000000D+00      0.000000D+00      0.000000D+00
   z          0.111643D+01      0.283768D+01      0.946549D+01

 Dipole polarizability, Alpha (dipole orientation).
 (esu units = cm**3 , SI units = C**2 m**2 J**-1)
 Alpha(0;0):
               (au)            (10**-24 esu)      (10**-40 SI)
   iso        0.412080D+02      0.610639D+01      0.679428D+01
   aniso      0.130350D+02      0.193159D+01      0.214918D+01
   xx         0.365043D+02      0.540937D+01      0.601874D+01
   yx         0.250519D+01      0.371231D+00      0.413050D+00
   yy         0.383137D+02      0.567751D+01      0.631708D+01
   zx         0.233785D+01      0.346433D+00      0.385459D+00
   zy        -0.883511D+00     -0.130923D+00     -0.145671D+00
   zz         0.488059D+02      0.723229D+01      0.804701D+01

 ----------------------------------------------------------------------
 Unable to Open any file for archive entry.
 1\1\GINC-RTX\Freq\RB97D3\def2TZVP/Auto\C3H6O1\MONTY\21-Mar-2026\0\\#N 
 Geom=AllCheck Guess=TCheck SCRF=Check GenChk RB97D3/def2TZVP/Auto Freq
 \\propionaldehyde s-trans\\0,1\C,1.7405433564,-0.2115922694,-0.1514473
 575\H,1.905271653,-1.0119041889,0.5794219124\H,1.6881435815,-0.6669372
 714,-1.1460349831\H,2.6112152877,0.4507146857,-0.1253752039\C,0.455201
 9933,0.5714863335,0.1612170358\H,0.2611653945,1.350482295,-0.582695510
 3\H,0.5565747762,1.0541508046,1.1457956283\C,-0.7431089892,-0.34400197
 87,0.2376063208\O,-1.7513722155,-0.235918038,-0.4213551393\H,-0.632370
 838,-1.1832203724,0.972934297\\Version=ES64L-G16RevC.01\State=1-A\HF=-
 193.1053541\RMSD=1.210e-09\RMSF=2.368e-05\ZeroPoint=0.0824056\Thermal=
 0.0875373\ETot=-193.0178168\HTot=-193.0168726\GTot=-193.050659\Dipole=
 1.0193025,0.0807077,0.4482471\DipoleDeriv=0.1225814,-0.0032319,-0.0019
 896,-0.0959111,0.0787049,-0.0044074,0.0067594,0.0031593,0.1285693,0.04
 59419,0.0196384,0.0156533,0.064505,-0.0586982,0.0865229,-0.0279855,0.1
 103186,-0.0370668,0.0222218,0.0045898,-0.0248295,0.0366679,0.0230039,-
 0.0766161,0.0282734,-0.0855643,-0.1015337,-0.1193108,-0.0722201,0.0090
 988,-0.0808296,-0.0087092,-0.0090326,0.0091716,-0.0074311,0.0713531,-0
 .2747252,-0.1509328,-0.0435089,-0.2178509,-0.0407829,0.0163546,-0.0145
 336,0.0235745,0.1300322,-0.0043149,0.042499,-0.0203717,0.0220105,-0.04
 54677,0.0648297,-0.0030363,0.0999878,-0.0103579,0.0362704,0.0005997,0.
 0083459,-0.0193531,0.0260052,-0.0538669,0.0349149,-0.0810382,-0.085752
 8,1.1267313,0.1738008,0.3675846,0.3576885,0.5927485,-0.291821,0.358065
 2,-0.3183984,0.5317556,-0.9468888,-0.0315641,-0.2620606,-0.0522123,-0.
 393955,0.0824399,-0.3528357,0.0719173,-0.5035329,-0.0085072,0.0168211,
 -0.0479224,-0.0147149,-0.1728494,0.1855969,-0.0387933,0.1834744,-0.123
 4661\Polar=48.4728275,0.911314,37.9863089,3.0565289,-2.5907497,37.1647
 876\Quadrupole=-2.6369568,1.3580724,1.2788845,-0.062027,-1.3253156,-0.
 059498\PG=C01 [X(C3H6O1)]\NImag=0\\0.46721984,0.05324487,0.51195820,0.
 01883331,-0.01056086,0.54057042,-0.04936493,0.02492520,-0.02304881,0.0
 5447188,0.02503217,-0.17716514,0.12289366,-0.03113396,0.19307684,-0.02
 369799,0.12304023,-0.16067489,0.02517522,-0.13579189,0.17157198,-0.045
 90031,-0.00772726,-0.01580254,-0.00130923,-0.00222921,-0.00326829,0.05
 082265,-0.00763737,-0.08826840,-0.09408628,0.00134216,0.01047386,0.021
 34403,0.00448226,0.09347981,-0.01461278,-0.09463882,-0.25747872,-0.001
 67386,-0.00895048,-0.01825357,0.01445771,0.10532631,0.27814510,-0.2029
 1615,-0.12691516,-0.00591486,0.00414602,0.00327323,0.00053254,-0.00116
 622,-0.00061598,-0.00030486,0.22335833,-0.12766552,-0.14176941,-0.0042
 4667,-0.01750868,-0.01392303,-0.00175256,-0.00887104,-0.00800789,0.000
 66845,0.13551944,0.15342845,-0.00630355,-0.00510069,-0.04478021,0.0176
 8232,0.01314513,0.00029286,-0.02321445,-0.01786576,-0.00002163,0.00494
 434,0.00585082,0.04470524,-0.13209399,0.03466036,0.01792297,-0.0053778
 7,0.00385905,-0.00043762,-0.00098443,0.00044439,0.00133314,-0.02346888
 ,0.01771915,0.00578140,0.40461240,0.04753781,-0.09872151,-0.00639534,0
 .01998037,-0.01268320,-0.00623176,0.01082573,-0.00667067,-0.00145977,-
 0.01526941,0.01047350,0.00444746,-0.00508778,0.49479586,0.02164904,-0.
 00206348,-0.07558073,-0.01924910,0.01040108,0.00535085,0.02556823,-0.0
 1434883,-0.00449030,0.00176808,-0.00149756,-0.00104662,0.03473746,-0.0
 5047922,0.54680534,-0.00517294,0.01947488,-0.01886006,-0.00447024,0.00
 261696,0.00178855,0.00128901,-0.00061984,0.00029691,0.00058847,-0.0006
 5097,-0.00039739,-0.05335235,0.03214391,-0.03166058,0.05917445,0.00264
 300,-0.01028385,0.00923811,0.00232192,-0.00054212,-0.00080037,-0.00054
 828,0.00008075,-0.00002823,0.00000726,0.00056834,-0.00021955,0.0296505
 2,-0.17235821,0.12258602,-0.03438373,0.18799465,0.00166033,-0.00670987
 ,0.00606404,0.00195728,-0.00147717,0.00079731,-0.00052600,-0.00000353,
 0.00075084,-0.00060778,0.00030618,0.00012116,-0.02968410,0.12463709,-0
 .16884224,0.03156362,-0.13607270,0.17905133,0.00004529,0.01518479,0.02
 696530,0.00115620,-0.00038333,-0.00052623,-0.00474788,0.00330702,0.000
 76137,0.00163514,-0.00098597,0.00003759,-0.03878208,-0.01728501,-0.027
 56752,-0.00120476,-0.00232782,-0.00353302,0.05101617,0.00107115,-0.008
 41559,-0.01484141,-0.00053245,0.00017713,-0.00009853,0.00279722,-0.000
 68181,-0.00029956,-0.00037301,0.00090123,0.00076523,-0.01401186,-0.091
 92200,-0.09312133,0.00245137,0.01063339,0.01909370,0.01204599,0.096320
 89,-0.00023146,-0.00377799,-0.00642830,0.00017832,-0.00007509,0.000770
 61,0.00150770,-0.00065105,0.00134492,0.00011517,0.00049459,0.00029825,
 -0.02192611,-0.08984650,-0.23768454,-0.00219068,-0.00978247,-0.0174209
 8,0.02501104,0.10503559,0.25863942,-0.03624659,-0.00764994,0.00120080,
 0.00103412,-0.00195729,0.00097049,0.00239542,-0.00153614,-0.00149503,-
 0.00106069,0.00090939,0.00132187,-0.11128072,-0.04406126,0.01463262,0.
 00450326,0.00408705,-0.00167065,-0.00411482,-0.00052726,-0.00271496,0.
 72068659,0.01010587,0.01887351,-0.00050072,0.00232173,-0.00045159,0.00
 078563,0.00134563,-0.00039534,-0.00098319,0.00689744,-0.00378226,-0.00
 144062,-0.04543903,-0.13544130,0.01796695,-0.02066789,-0.01785908,0.00
 177894,-0.00959292,-0.00731895,0.00120677,0.01806047,0.41054363,0.0040
 1637,0.00559525,-0.00147267,-0.00269915,0.00026264,0.00026322,0.002096
 78,0.00019418,-0.00040587,0.00043540,-0.00091794,-0.00022210,0.0173303
 1,0.01798392,-0.08558580,0.02089496,0.01743414,-0.00324787,-0.02775194
 ,-0.02092992,-0.00051810,0.27341005,-0.15588167,0.48315854,0.00161968,
 -0.00539543,-0.00145835,0.00011106,0.00035865,-0.00025037,-0.00032395,
 0.00069521,0.00113832,-0.00163365,0.00154747,0.00059001,-0.04414788,-0
 .00918828,-0.03109170,0.00211132,0.00194277,0.00096040,-0.00485827,-0.
 00267249,0.00083387,-0.52108299,0.03819276,-0.29044476,0.57651491,-0.0
 0376110,-0.00483197,-0.00154843,-0.00086417,0.00026610,-0.00009155,-0.
 00003033,0.00002331,0.00030473,-0.00175596,0.00129257,0.00053752,-0.02
 219974,0.02101095,-0.00934182,0.00313977,0.00332381,-0.00214021,-0.001
 25920,-0.00062114,-0.00177444,0.04185709,-0.09549010,0.05194840,-0.040
 70462,0.06527514,0.00049035,-0.00507750,-0.00042702,0.00103470,-0.0001
 5027,-0.00007729,-0.00091692,0.00034667,0.00055833,-0.00092866,0.00118
 155,0.00067207,-0.02070222,-0.00110548,0.01348836,-0.00086162,-0.00292
 362,0.00103194,0.00399193,0.00184142,0.00095471,-0.29368113,0.04961238
 ,-0.26692830,0.34761725,-0.05974373,0.26489578,0.00281010,0.00019768,0
 .00016225,-0.00039701,0.00056373,-0.00028629,-0.00007506,0.00013829,0.
 00009909,0.00051763,-0.00001327,-0.00044213,0.00487581,-0.01959608,0.0
 1121347,-0.00346621,-0.00339268,-0.00012007,-0.00014499,-0.00024867,-0
 .00058288,-0.05483359,-0.00122405,0.00271198,-0.00831023,0.02557826,-0
 .03604368,0.05902356,-0.00057087,-0.00137584,0.00004795,-0.00085211,0.
 00077115,-0.00040322,-0.00004471,-0.00003362,0.00006058,-0.00076786,0.
 00081850,-0.00011953,0.00040492,-0.00848343,0.01989818,-0.00350447,-0.
 00155767,0.00058757,0.00129644,0.00092686,-0.00082941,-0.00918212,-0.1
 6867851,0.08431100,0.01522397,0.00975133,0.01601859,-0.00200320,0.1678
 6123,-0.00180362,-0.00070626,0.00020807,0.00064309,-0.00025761,-0.0000
 4108,0.00009779,-0.00025573,-0.00014911,-0.00003937,-0.00008685,-0.000
 01901,-0.00435522,0.00844961,0.00758568,-0.00057372,0.00056869,0.00169
 447,0.00261148,0.00255480,0.00004401,0.00802596,0.08745553,-0.12504106
 ,-0.02789465,0.02184953,-0.01416859,0.02328827,-0.11957171,0.12988661\
 \-0.00004431,0.00003023,0.00000610,0.00000942,-0.00000848,0.00000256,-
 0.00000086,-0.00000101,0.00000043,0.00001585,-0.00001245,-0.00000150,0
 .00007216,0.00000407,-0.00002729,-0.00000844,-0.00000950,0.00001242,-0
 .00001648,0.00000138,0.00000792,-0.00003815,0.00004314,-0.00001733,-0.
 00001150,-0.00000927,-0.00001141,0.00002230,-0.00003810,0.00002810\\\@
 The archive entry for this job was punched.


 A SOLDIER'S LIFE IS A LIFE OF HONOR, BUT A DOG WOULD NOT LEAD IT.
 -- PRINCE RUPERT, FOUNDER OF THE HUDSON'S BAY COMPANY
 Job cpu time:       0 days  0 hours  1 minutes 29.6 seconds.
 Elapsed time:       0 days  0 hours  0 minutes 22.4 seconds.
 File lengths (MBytes):  RWF=     32 Int=      0 D2E=      0 Chk=      7 Scr=      1
 Normal termination of Gaussian 16 at Sat Mar 21 20:19:43 2026.
